/*--------------------------------*- C++ -*----------------------------------*\
| =========                 |                                                 |
| \\      /  F ield         | OpenFOAM: The Open Source CFD Toolbox           |
|  \\    /   O peration     | Version:  v1906                                 |
|   \\  /    A nd           | Web:      www.OpenFOAM.com                      |
|    \\/     M anipulation  |                                                 |
\*---------------------------------------------------------------------------*/
FoamFile
{
    version     2.0;
    format      ascii;
    class       volScalarField;
    location    "0.5";
    object      p;
}
// * * * * * * * * * * * * * * * * * * * * * * * * * * * * * * * * * * * * * //

dimensions      [0 2 -2 0 0 0 0];


internalField   nonuniform List<scalar> 
118248
(
9.80983e-10
0.000266879
0.000334129
0.000410658
0.000233795
0.000206263
0.000267927
0.000626847
0.000472919
0.000487515
0.000503199
0.000458431
0.000179114
0.00034028
0.000472644
0.000480987
0.000486235
0.000484544
0.000576279
0.0002354
4.31268e-05
0.000404024
0.000486404
0.000487291
0.000487236
0.000493193
0.000565095
0.000224267
0.000250586
0.000503938
0.000485917
0.000494132
0.000489895
0.000419259
0.000230834
0.000215524
0.000455542
0.000576052
0.000565196
0.000417823
0.000336392
0.000178545
0.000236312
0.000226721
0.000234591
0.00107082
0.000952832
0.000601718
0.000644681
0.000781858
0.000902458
0.00095306
0.00101171
0.000954003
0.000954021
0.000172895
0.000294661
0.00101057
0.000600819
0.000953659
0.001567
0.0015669
0.000953786
-0.000527411
0.000875305
0.00107069
0.00064426
0.000953797
0.00156689
0.00156686
0.000953944
-0.000475125
0.000827236
0.000782738
0.000173238
0.000953826
0.000953817
-0.000740792
-0.000195651
0.000895348
0.000904424
0.000293177
-0.000527718
-0.000475251
-0.000195546
0.00031896
0.00101054
0.000875708
0.000828339
0.000895344
0.00185668
0.00169566
0.00110421
0.0011583
0.00145746
0.00163158
0.0016995
0.00157006
0.00162489
0.00162497
0.000770466
0.000842621
0.00172916
0.00110441
0.00162506
0.00215523
0.00215529
0.00162485
9.02691e-05
0.00153055
0.00185601
0.00115855
0.00162501
0.00215518
0.00215523
0.00162489
0.000181108
0.00146867
0.00145746
0.000770295
0.00162489
0.00162493
-7.94322e-06
0.000379016
0.00159628
0.0016304
0.00084218
8.98201e-05
0.000180836
0.000379133
0.000909366
0.00173072
0.00153123
0.00147113
0.00159692
0.00239329
0.00223178
0.00163829
0.00169095
0.00199089
0.00216281
0.00223433
0.00210626
0.00216849
0.00216865
0.001305
0.0013767
0.00226617
0.0016386
0.00216871
0.00269147
0.00269147
0.00216854
0.000622674
0.00206511
0.00239238
0.00169121
0.00216851
0.00269146
0.00269146
0.00216857
0.000715995
0.00200548
0.00199074
0.00130528
0.0021687
0.00216861
0.00053021
0.000911983
0.00213164
0.00216333
0.001378
0.000622772
0.000715428
0.000911739
0.0014398
0.00226733
0.00206547
0.0020046
0.00213105
0.00292594
0.00276508
0.0021731
0.00222537
0.00252342
0.00269476
0.00276543
0.00264075
0.0027041
0.00270402
0.00183907
0.00191108
0.00279803
0.00217279
0.00270408
0.00322682
0.00322689
0.00270409
0.00115572
0.0025984
0.00292486
0.00222549
0.00270408
0.00322686
0.00322687
0.00270408
0.00124937
0.0025384
0.00252361
0.00183863
0.00270404
0.00270413
0.00106269
0.00144494
0.00266331
0.00269599
0.00190925
0.00115503
0.00124945
0.0014454
0.00197179
0.00279813
0.00259786
0.00253997
0.00266439
0.00346029
0.00329923
0.00270748
0.00275997
0.00305796
0.00323052
0.00329996
0.00317513
0.00323861
0.00323844
0.00237381
0.00244583
0.00333205
0.00270753
0.00323852
0.00376149
0.0037615
0.00323874
0.00169038
0.00313275
0.00345933
0.00276021
0.00323868
0.00376144
0.00376147
0.00323843
0.00178433
0.00307329
0.00305794
0.00237312
0.00323846
0.00323866
0.00159705
0.00197967
0.00319822
0.00322924
0.00244348
0.00168924
0.00178329
0.00197947
0.00250589
0.00333312
0.00313278
0.00307263
0.00319814
0.00399474
0.00383359
0.00324201
0.00329449
0.00359198
0.00376296
0.00383475
0.00370969
0.00377311
0.00377299
0.00290785
0.00297963
0.00386769
0.00324202
0.00377297
0.00429602
0.00429604
0.00377317
0.00222462
0.00366731
0.00399389
0.00329465
0.0037731
0.00429603
0.00429606
0.00377302
0.00231837
0.00360639
0.0035926
0.00290816
0.00377307
0.00377322
0.00213142
0.00251397
0.00373273
0.00376392
0.00297909
0.00222417
0.00231806
0.00251423
0.00304068
0.00386701
0.0036676
0.00360731
0.0037329
0.00452915
0.00436829
0.00377661
0.00382891
0.00412637
0.00429757
0.0043689
0.00424418
0.00430745
0.00430739
0.00344229
0.00351423
0.00440198
0.00377635
0.00430751
0.00483043
0.00483046
0.00430752
0.00275912
0.00420192
0.00452834
0.0038291
0.00430746
0.00483042
0.0048304
0.0043074
0.00285302
0.00414233
0.00412727
0.00344255
0.00430748
0.00430758
0.00266599
0.00304838
0.00426676
0.00429986
0.00351317
0.00275861
0.00285286
0.00304891
0.00357501
0.00440067
0.00420165
0.00414241
0.00426751
0.00506372
0.00490275
0.00431106
0.00436335
0.00466121
0.0048334
0.00490321
0.00477862
0.0048418
0.00484186
0.0039765
0.00404796
0.00493586
0.00431073
0.00484191
0.00536482
0.00536485
0.00484183
0.00329321
0.00473611
0.00506265
0.00436343
0.00484175
0.00536481
0.0053648
0.0048418
0.00338738
0.00467664
0.00466148
0.00397714
0.00484192
0.00484187
0.00320043
0.00358289
0.00480147
0.00483346
0.00404812
0.00329329
0.00338716
0.00358321
0.00410949
0.00493589
0.00473631
0.00467604
0.00480162
0.00559803
0.00543572
0.00484509
0.00489765
0.00519575
0.00536751
0.00543914
0.00531297
0.00537615
0.00537626
0.00451129
0.0045822
0.00546998
0.00484539
0.00537635
0.00589923
0.00589917
0.00537628
0.0038278
0.00527033
0.0055972
0.00489796
0.00537619
0.00589919
0.00589923
0.00537622
0.00392163
0.00520965
0.00519599
0.00451145
0.00537634
0.00537621
0.00373464
0.00411744
0.00533623
0.00536886
0.00458303
0.00382767
0.00392124
0.00411722
0.00464404
0.0054706
0.00527065
0.0052104
0.00533564
0.00613248
0.00597209
0.0053795
0.00543209
0.00573014
0.00590176
0.0059715
0.0058474
0.00591063
0.00591062
0.0050457
0.00511668
0.00600466
0.00537987
0.00591072
0.00643363
0.00643366
0.00591064
0.00436202
0.0058047
0.00613154
0.00543235
0.00591065
0.00643364
0.00643363
0.00591063
0.00445651
0.00574782
0.00573023
0.00504562
0.00591071
0.00591077
0.00426916
0.00465192
0.00587083
0.00590271
0.00511704
0.00436198
0.00445572
0.00465175
0.00517814
0.00600458
0.00580515
0.00574494
0.00587044
0.00666691
0.00650624
0.00591392
0.00596643
0.00626442
0.00643563
0.00650611
0.00638171
0.00644506
0.006445
0.00558014
0.00565188
0.00653889
0.00591403
0.00644508
0.00696808
0.0069681
0.00644516
0.00489675
0.00633965
0.00666596
0.00596673
0.00644512
0.00696808
0.00696804
0.006445
0.00499088
0.00628006
0.00626492
0.00558002
0.00644509
0.00644522
0.00480355
0.00518616
0.0064049
0.00643834
0.00565069
0.00489617
0.00499004
0.00518622
0.00571265
0.00653926
0.00633949
0.00627934
0.00640498
0.00720123
0.00703999
0.00644835
0.00650079
0.00679876
0.00697063
0.00704113
0.00691622
0.0069794
0.00697933
0.00611452
0.0061863
0.00707279
0.00644859
0.00697952
0.00750243
0.00750256
0.00697956
0.00543102
0.00687396
0.00720041
0.00650119
0.00697942
0.00750238
0.00750236
0.0069793
0.00552525
0.00681363
0.0067991
0.00611443
0.00697948
0.00697968
0.00533808
0.00572069
0.00693918
0.00697159
0.00618589
0.00543068
0.00552512
0.00572094
0.00624724
0.00707379
0.0068738
0.0068171
0.00693986
0.00773549
0.0075763
0.00698291
0.0070352
0.00733263
0.00750362
0.00757327
0.0074505
0.00751376
0.00751377
0.0066486
0.00672031
0.00760849
0.00698249
0.0075139
0.00803687
0.0080369
0.00751394
0.00596511
0.00740857
0.00773455
0.00703536
0.0075138
0.00803679
0.00803678
0.00751373
0.00605857
0.00734494
0.00733347
0.00664909
0.00751392
0.0075139
0.00587219
0.0062546
0.00747258
0.00750603
0.00672003
0.00596517
0.006059
0.00625507
0.0067813
0.00760745
0.00740825
0.007348
0.00747379
0.00826998
0.00810832
0.00751736
0.00756968
0.00786721
0.00803791
0.00810989
0.007985
0.00804818
0.00804817
0.00718284
0.0072537
0.00814289
0.00751699
0.0080482
0.00857115
0.00857123
0.00804811
0.00649937
0.00794245
0.00826901
0.00756969
0.00804809
0.00857117
0.00857115
0.00804811
0.00659328
0.00788255
0.00786789
0.00718344
0.00804826
0.00804823
0.00640659
0.006789
0.00800733
0.00804077
0.00725488
0.00649962
0.00659348
0.00678955
0.00731576
0.00814114
0.00794232
0.00788239
0.00800816
0.00880441
0.0086415
0.00805157
0.00810395
0.00840232
0.00857493
0.00864555
0.00851939
0.00858258
0.0085825
0.00771771
0.00778925
0.00867515
0.00805136
0.00858256
0.00910553
0.00910557
0.00858255
0.00703411
0.00847663
0.00880325
0.00810407
0.00858243
0.00910557
0.0091055
0.00858259
0.00712851
0.00841982
0.00840184
0.00771779
0.00858268
0.00858268
0.0069411
0.00732388
0.0085432
0.00857439
0.00778971
0.00703426
0.0071279
0.00732392
0.00785047
0.00867746
0.00847741
0.00841701
0.00854218
0.00933877
0.00917644
0.00858564
0.00863836
0.00893687
0.00911033
0.00917943
0.00905367
0.00911697
0.00911695
0.00825207
0.00832275
0.00920992
0.00858609
0.00911698
0.00963998
0.00963997
0.00911699
0.00756848
0.00901085
0.0093378
0.0086386
0.00911698
0.00963999
0.00963996
0.00911697
0.00766287
0.00895186
0.00893634
0.00825165
0.00911697
0.00911701
0.00747544
0.00785835
0.00907715
0.00910852
0.00832284
0.00756794
0.00766193
0.00785803
0.00838493
0.00921092
0.00901143
0.00895113
0.00907636
0.00987324
0.00971314
0.00912015
0.00917279
0.00947072
0.00964205
0.00971156
0.00958827
0.00965133
0.00965141
0.00878634
0.00885728
0.00974687
0.00912061
0.00965153
0.0101744
0.0101744
0.00965147
0.00810288
0.00954593
0.00987232
0.009173
0.00965128
0.0101744
0.0101744
0.00965139
0.00819719
0.00948642
0.00947091
0.0087867
0.00965154
0.00965142
0.00800991
0.00839277
0.00961101
0.00964297
0.0088584
0.00810292
0.00819668
0.00839257
0.00891927
0.00974467
0.00954622
0.00948589
0.00961158
0.0104075
0.0102482
0.00965485
0.00970716
0.0100047
0.0101754
0.0102453
0.0101225
0.0101858
0.0101858
0.00932073
0.00939242
0.0102809
0.00965451
0.0101859
0.0107089
0.0107088
0.010186
0.00863732
0.0100804
0.0104066
0.00970738
0.0101859
0.0107088
0.0107088
0.0101858
0.00873065
0.0100164
0.0100056
0.0093207
0.0101858
0.0101859
0.00854422
0.00892651
0.0101445
0.0101786
0.00939121
0.00863689
0.00873105
0.00892718
0.00945343
0.0102801
0.0100803
0.0100202
0.0101459
0.0109421
0.0107822
0.0101893
0.0102416
0.0105396
0.0107118
0.0107801
0.010657
0.0107202
0.0107203
0.0098549
0.00992621
0.0108142
0.0101889
0.0107203
0.0112433
0.0112432
0.0107203
0.00917159
0.0106146
0.010941
0.0102418
0.0107202
0.0112433
0.0112433
0.0107202
0.00926596
0.0105554
0.0105398
0.00985544
0.0107203
0.0107203
0.00907864
0.0094614
0.0106804
0.0107115
0.00992617
0.0091714
0.00926541
0.00946147
0.00998806
0.0108144
0.0106147
0.0105545
0.0106797
0.0114765
0.0113166
0.0107235
0.010776
0.0110743
0.0112468
0.0113142
0.0111912
0.0112546
0.0112546
0.0103898
0.0104607
0.0113482
0.0107233
0.0112547
0.0117777
0.0117778
0.0112547
0.00970607
0.0111492
0.0114751
0.010776
0.0112545
0.0117777
0.0117776
0.0112546
0.00980017
0.0110875
0.0110734
0.0103894
0.0112547
0.0112547
0.00961314
0.00999599
0.0112144
0.0112439
0.010461
0.00970578
0.00979968
0.00999573
0.0105225
0.0113496
0.0111494
0.0110889
0.0112141
0.0120109
0.0118487
0.0112579
0.0113104
0.0116085
0.0117798
0.0118512
0.0117258
0.0117889
0.0117891
0.0109236
0.0109938
0.0118836
0.0112578
0.0117891
0.012312
0.0123121
0.0117889
0.0102401
0.0116834
0.0120098
0.0113105
0.0117889
0.012312
0.0123119
0.0117891
0.0103348
0.0116231
0.0116082
0.010924
0.0117891
0.011789
0.0101475
0.0105305
0.011749
0.0117803
0.0109957
0.0102403
0.010334
0.01053
0.0110569
0.0118839
0.0116838
0.0116233
0.0117485
0.0125455
0.0123837
0.0117924
0.0118448
0.012143
0.0123141
0.0123849
0.0122601
0.0123234
0.0123234
0.0114584
0.0115291
0.0124175
0.011792
0.0123234
0.0128464
0.0128464
0.0123234
0.0107748
0.012218
0.0125442
0.0118448
0.0123233
0.0128464
0.0128464
0.0123234
0.0108693
0.0121585
0.0121428
0.0114586
0.0123235
0.0123233
0.0106818
0.0110647
0.0122833
0.0123149
0.0115302
0.0107747
0.0108685
0.0110645
0.0115912
0.0124166
0.0122182
0.0121578
0.0122833
0.0130797
0.0129182
0.0123265
0.0123791
0.0126773
0.012849
0.0129192
0.0127945
0.0128576
0.0128577
0.0119929
0.0120638
0.0129519
0.0123265
0.0128578
0.0133807
0.0133807
0.0128577
0.0113094
0.012752
0.0130787
0.0123792
0.0128576
0.0133806
0.0133807
0.0128575
0.0114031
0.0126898
0.0126774
0.0119927
0.0128577
0.0128576
0.0112159
0.0115987
0.012817
0.0128506
0.012064
0.0113088
0.0114027
0.0115987
0.0121253
0.0129518
0.0127522
0.012692
0.0128175
0.0136138
0.0134532
0.0128608
0.0129134
0.0132113
0.0133829
0.0134531
0.0133287
0.0133921
0.0133919
0.0125271
0.0125988
0.0134873
0.0128608
0.013392
0.0139151
0.0139151
0.0133921
0.0118436
0.0132868
0.0136129
0.0129135
0.013392
0.013915
0.0139149
0.0133919
0.0119373
0.0132265
0.0132117
0.0125272
0.013392
0.0133921
0.0117504
0.0121331
0.0133519
0.0133842
0.012598
0.0118432
0.0119372
0.0121332
0.0126596
0.0134856
0.0132866
0.0132264
0.0133518
0.0141481
0.0139886
0.0133951
0.0134475
0.0137454
0.0139176
0.0139859
0.013863
0.0139263
0.0139262
0.0130612
0.0131328
0.014021
0.0133949
0.0139262
0.0144493
0.0144493
0.0139263
0.0123776
0.0138209
0.0141471
0.0134477
0.0139263
0.0144493
0.0144493
0.0139262
0.012472
0.0137634
0.0137462
0.0130613
0.0139262
0.0139264
0.0122846
0.0126674
0.0138862
0.0139186
0.0131316
0.0123773
0.0124715
0.0126675
0.013194
0.0140193
0.0138206
0.0137606
0.0138864
0.0146824
0.0145227
0.0139291
0.0139817
0.0142799
0.014452
0.01452
0.0143973
0.0144605
0.0144604
0.0135956
0.0136672
0.0145536
0.0139294
0.0144606
0.0149836
0.0149837
0.0144606
0.0129119
0.0143553
0.0146815
0.013982
0.0144605
0.0149836
0.0149834
0.0144605
0.0130064
0.014296
0.0142805
0.0135957
0.0144606
0.0144606
0.0128191
0.013202
0.0144202
0.0144533
0.0136661
0.0129118
0.013006
0.013202
0.0137286
0.0145537
0.0143548
0.014295
0.0144208
0.0152166
0.0150543
0.0144636
0.0145161
0.0148142
0.0149864
0.0150571
0.0149316
0.0149949
0.0149948
0.0141295
0.0142008
0.0150889
0.0144636
0.0149949
0.0155179
0.0155179
0.0149949
0.0134463
0.0148896
0.0152159
0.0145163
0.0149949
0.0155179
0.0155179
0.0149949
0.0135408
0.01483
0.0148147
0.0141297
0.0149949
0.0149948
0.0133532
0.0137363
0.0149551
0.0149873
0.0142
0.0134457
0.0135398
0.0137358
0.0142628
0.0150892
0.0148894
0.0148292
0.0149543
0.0157513
0.0155916
0.0149979
0.0150505
0.0153488
0.015521
0.0155887
0.0154659
0.0155292
0.0155292
0.0146642
0.0147349
0.0156229
0.0149977
0.0155292
0.0160522
0.0160522
0.0155292
0.0139805
0.0154237
0.0157499
0.0150505
0.0155292
0.0160523
0.0160522
0.0155291
0.014075
0.0153643
0.0153487
0.0146638
0.0155291
0.0155293
0.0138874
0.0142702
0.015489
0.0155202
0.0147339
0.0139799
0.0140742
0.0142704
0.0147968
0.0156235
0.0154237
0.0153636
0.0154892
0.0162855
0.0161237
0.0155323
0.0155848
0.015883
0.0160544
0.016125
0.0160003
0.0160635
0.0160635
0.0151987
0.0152703
0.0161571
0.0155321
0.0160635
0.0165866
0.0165866
0.0160636
0.0145152
0.0159583
0.0162845
0.015585
0.0160636
0.0165866
0.0165866
0.0160634
0.0146093
0.0158986
0.0158834
0.0151984
0.0160635
0.0160636
0.0144218
0.0148045
0.0160228
0.0160559
0.0152687
0.0145145
0.0146087
0.0148047
0.015331
0.0161579
0.0159582
0.0158981
0.0160237
0.0168199
0.0166581
0.0160666
0.0161191
0.0164176
0.0165906
0.0166594
0.0165347
0.0165979
0.0165979
0.0157328
0.0158039
0.0166904
0.0160664
0.0165979
0.017121
0.017121
0.016598
0.0150491
0.0164924
0.0168189
0.0161192
0.0165979
0.017121
0.0171209
0.0165979
0.0151436
0.0164335
0.0164179
0.0157329
0.0165979
0.016598
0.0149561
0.015339
0.0165579
0.0165903
0.015803
0.0150486
0.0151429
0.015339
0.0158655
0.0166909
0.0164922
0.0164323
0.0165578
0.0173543
0.0171925
0.016601
0.0166535
0.0169517
0.0171234
0.0171937
0.0170691
0.0171323
0.0171322
0.0162673
0.0163386
0.0172256
0.0166008
0.0171323
0.0176554
0.0176554
0.0171324
0.0155836
0.0170272
0.0173533
0.0166536
0.0171323
0.0176554
0.0176553
0.0171323
0.0156779
0.016967
0.0169521
0.0162672
0.0171323
0.0171324
0.0154905
0.0158733
0.0170922
0.0171247
0.0163374
0.0155831
0.0156774
0.0158734
0.0163999
0.0172266
0.017027
0.0169669
0.0170923
0.0178887
0.0177269
0.0171354
0.0171878
0.017486
0.0176578
0.0177281
0.0176035
0.0176667
0.0176666
0.0168016
0.016873
0.0177599
0.0171351
0.0176667
0.0181898
0.0181898
0.0176667
0.016118
0.0175617
0.0178877
0.017188
0.0176667
0.0181898
0.0181896
0.0176667
0.0162127
0.0175025
0.0174865
0.0168015
0.0176666
0.0176667
0.0160251
0.0164082
0.0176268
0.0176591
0.0168717
0.0161175
0.0162118
0.0164079
0.0169347
0.017761
0.0175613
0.0175013
0.0176267
0.018423
0.0182612
0.0176697
0.0177222
0.0180204
0.0181921
0.0182625
0.0181379
0.018201
0.0182009
0.0173359
0.0174073
0.0182942
0.0176695
0.018201
0.0187241
0.0187242
0.0182011
0.0166522
0.018096
0.018422
0.0177224
0.018201
0.0187241
0.018724
0.018201
0.0167466
0.0180365
0.0180209
0.0173359
0.018201
0.0182011
0.0165593
0.0169422
0.0181605
0.0181935
0.017406
0.016652
0.0167463
0.0169423
0.0174689
0.0182953
0.0180958
0.0180357
0.0181614
0.0189572
0.0187957
0.0182037
0.0182563
0.0185546
0.0187264
0.0187968
0.0186721
0.0187353
0.0187352
0.0178702
0.0179415
0.0188284
0.0182039
0.0187354
0.0192584
0.0192584
0.0187353
0.0171865
0.0186302
0.0189565
0.0182567
0.0187353
0.0192584
0.0192584
0.0187353
0.0172813
0.0185727
0.0185552
0.0178702
0.0187353
0.0187354
0.0170935
0.0174765
0.0186957
0.0187278
0.0179402
0.0171861
0.0172804
0.0174764
0.0180029
0.0188296
0.0186301
0.01857
0.0186954
0.0194915
0.0193304
0.0187381
0.0187906
0.019089
0.0192607
0.0193308
0.0192064
0.0192696
0.0192695
0.0184046
0.0184759
0.0193628
0.0187382
0.0192697
0.0197927
0.0197927
0.0192697
0.0177211
0.0191645
0.0194907
0.018791
0.0192696
0.0197927
0.0197927
0.0192695
0.0178156
0.019105
0.0190895
0.0184044
0.0192695
0.0192697
0.0176279
0.0180107
0.0192296
0.019262
0.0184745
0.0177203
0.0178149
0.0180109
0.0185372
0.0193639
0.0191644
0.0191042
0.0192297
0.0200258
0.0198634
0.0192724
0.019325
0.0196234
0.0197956
0.019866
0.0197407
0.0198038
0.0198038
0.0189389
0.0190093
0.0198975
0.0192723
0.0198039
0.020327
0.020327
0.0198039
0.0182549
0.0196986
0.020025
0.0193252
0.0198039
0.0203269
0.0203269
0.0198036
0.0183492
0.019637
0.0196234
0.0189384
0.0198038
0.0198038
0.0181619
0.0185447
0.0197632
0.0197947
0.0190082
0.0182544
0.0183486
0.0185447
0.0190713
0.0198986
0.0196986
0.0196354
0.0197633
0.0205601
0.0203982
0.0198066
0.0198591
0.0201576
0.0203289
0.0203995
0.0202749
0.020338
0.020338
0.019473
0.0195433
0.0204319
0.0198063
0.020338
0.0208611
0.0208612
0.020338
0.0187891
0.0202332
0.0205591
0.0198592
0.0203379
0.0208611
0.020861
0.020338
0.0188837
0.0201726
0.0201577
0.0194731
0.020338
0.020338
0.0186962
0.0190794
0.0202981
0.0203296
0.0195435
0.0187889
0.0188831
0.0190791
0.0196058
0.0204319
0.0202329
0.0201727
0.020298
0.0210942
0.0209327
0.0203405
0.0203932
0.020692
0.0208645
0.0209335
0.0208089
0.0208722
0.0208721
0.0200073
0.0200783
0.0209649
0.0203405
0.0208721
0.0213953
0.0213953
0.0208722
0.0193236
0.0207669
0.0210932
0.0203934
0.0208722
0.0213953
0.0213953
0.0208722
0.0194182
0.0207076
0.0206918
0.0200071
0.0208722
0.0208722
0.0192303
0.0196133
0.0208322
0.0208643
0.020078
0.0193232
0.0194174
0.0196134
0.0201398
0.0209665
0.0207672
0.020707
0.0208323
0.0216285
0.0214665
0.0208749
0.0209274
0.0212263
0.0213995
0.0214679
0.0213432
0.0214063
0.0214063
0.0205415
0.0206125
0.0214989
0.0208747
0.0214064
0.0219295
0.0219295
0.0214065
0.0198578
0.0213009
0.0216275
0.0209276
0.0214063
0.0219295
0.0219295
0.0214062
0.019952
0.0212386
0.0212261
0.0205415
0.0214063
0.0214064
0.0197644
0.0201474
0.0213658
0.0213984
0.0206117
0.0198572
0.0199515
0.0201474
0.0206738
0.0215
0.0213012
0.021241
0.0213662
0.0221625
0.0220011
0.0214088
0.0214616
0.0217602
0.0219335
0.0220018
0.0218773
0.0219405
0.0219405
0.0210754
0.0211464
0.0220346
0.0214088
0.0219405
0.0224637
0.0224637
0.0219406
0.0203919
0.0218354
0.0221615
0.0214617
0.0219405
0.0224637
0.0224637
0.0219404
0.0204865
0.021776
0.02176
0.0210755
0.0219406
0.0219406
0.0202987
0.0206817
0.0219006
0.0219316
0.0211458
0.0203915
0.0204859
0.0206819
0.0212084
0.0220357
0.0218358
0.0217755
0.0219007
0.022697
0.0225349
0.0219432
0.0219959
0.0222945
0.0224667
0.0225362
0.0224117
0.0224748
0.0224748
0.0216098
0.02168
0.0225687
0.0219429
0.0224747
0.0229979
0.0229978
0.0224748
0.0209258
0.0223694
0.0226958
0.0219959
0.0224748
0.0229979
0.0229979
0.0224746
0.02102
0.0223059
0.0222946
0.0216095
0.0224747
0.0224747
0.0208326
0.0212156
0.0224344
0.0224671
0.0216793
0.0209253
0.0210198
0.0212157
0.0217422
0.022569
0.0223696
0.0223094
0.0224343
0.0232311
0.023069
0.0224774
0.0225299
0.0228284
0.0229996
0.0230705
0.0229459
0.023009
0.0230089
0.0221439
0.0222149
0.0231027
0.0224771
0.0230089
0.0235321
0.0235321
0.023009
0.0214603
0.0229041
0.02323
0.02253
0.0230089
0.0235321
0.0235321
0.0230088
0.0215545
0.0228415
0.0228289
0.0221438
0.0230089
0.023009
0.0213669
0.0217498
0.0229684
0.0230013
0.0222135
0.0214594
0.021554
0.02175
0.0222764
0.0231016
0.0229037
0.0228437
0.022969
0.023765
0.0236023
0.0230113
0.023064
0.0233626
0.0235347
0.0236058
0.0234801
0.0235431
0.0235431
0.0226783
0.0227494
0.0236363
0.0230115
0.0235432
0.0240664
0.0240664
0.0235433
0.0219947
0.0234384
0.0237644
0.0230644
0.0235432
0.0240663
0.0240663
0.023543
0.0220893
0.0233788
0.023363
0.0226779
0.0235431
0.0235432
0.0219012
0.0222842
0.0235032
0.0235352
0.0227476
0.0219937
0.0220883
0.0222843
0.0228108
0.0236376
0.0234381
0.023378
0.0235032
0.0242994
0.0241373
0.0235458
0.0235983
0.0238968
0.0240692
0.0241389
0.0240143
0.0240773
0.0240773
0.023212
0.0232828
0.024171
0.0235455
0.0240773
0.0246005
0.0246006
0.0240773
0.0225285
0.0239722
0.0242984
0.0235984
0.0240773
0.0246005
0.0246004
0.0240772
0.0226234
0.023912
0.023897
0.0232124
0.0240773
0.0240774
0.0224354
0.0228187
0.0240373
0.0240686
0.0232824
0.0225281
0.0226225
0.0228184
0.0233449
0.0241713
0.0239723
0.0239121
0.0240373
0.0248336
0.0246704
0.0240795
0.0241323
0.0244313
0.0246043
0.0246741
0.0245483
0.0246114
0.0246115
0.0237463
0.0238169
0.0247041
0.0240798
0.0246116
0.0251346
0.0251347
0.0246115
0.0230625
0.0245062
0.0248325
0.0241326
0.0246115
0.0251347
0.0251347
0.0246114
0.0231574
0.0244469
0.024431
0.0237464
0.0246115
0.0246116
0.0229695
0.0233525
0.0245715
0.0246026
0.0238165
0.0230623
0.0231568
0.0233527
0.0238792
0.0247067
0.0245069
0.0244465
0.0245717
0.0253677
0.0252063
0.0246139
0.0246665
0.0249651
0.0251369
0.0252066
0.0250825
0.0251456
0.0251456
0.0242806
0.0243515
0.0252388
0.0246136
0.0251456
0.0256689
0.0256688
0.0251457
0.0235968
0.0250408
0.0253667
0.0246666
0.0251456
0.0256687
0.0256689
0.0251454
0.0236914
0.0249813
0.0249655
0.0242808
0.0251457
0.0251457
0.0235036
0.0238865
0.0251053
0.0251383
0.0243515
0.023597
0.0236912
0.0238869
0.0244132
0.02524
0.0250407
0.02498
0.0251058
0.0259017
0.0257402
0.0251477
0.0252005
0.0254993
0.0256718
0.025741
0.0256165
0.0256797
0.0256796
0.0248149
0.024886
0.0257732
0.0251478
0.0256796
0.0262029
0.0262029
0.0256799
0.0241311
0.0255748
0.0259007
0.0252007
0.0256797
0.0262029
0.0262029
0.0256798
0.0242254
0.025514
0.0254993
0.0248142
0.0256796
0.0256797
0.0240378
0.0244212
0.0256401
0.0256715
0.0248837
0.0241301
0.0242251
0.0244207
0.0249474
0.0257736
0.0255745
0.0255146
0.0256393
0.0264358
0.0262738
0.025682
0.0257347
0.0260328
0.0262039
0.0262752
0.0261507
0.0262138
0.0262137
0.0253487
0.0254197
0.0263083
0.0256818
0.0262138
0.026737
0.026737
0.0262139
0.0246653
0.0261091
0.0264348
0.0257348
0.0262138
0.0267369
0.026737
0.0262137
0.0247598
0.0260496
0.0260336
0.0253489
0.026214
0.0262138
0.0245719
0.024955
0.0261739
0.0262064
0.0254196
0.024665
0.0247591
0.0249549
0.0254815
0.0263082
0.0261092
0.0260459
0.0261736
0.02697
0.0268079
0.0262161
0.0262687
0.0265676
0.0267411
0.0268092
0.0266848
0.0267479
0.0267478
0.0258828
0.0259534
0.0268402
0.0262159
0.0267479
0.0272711
0.0272712
0.0267478
0.0251988
0.0266423
0.026969
0.0262689
0.0267479
0.0272711
0.027271
0.0267478
0.025294
0.0265847
0.0265677
0.0258829
0.0267479
0.026748
0.0251061
0.0254892
0.0267083
0.0267411
0.0259535
0.0251989
0.0252934
0.0254894
0.0260159
0.026842
0.0266432
0.026583
0.0267082
0.0275042
0.0273421
0.0267502
0.0268029
0.0271015
0.0272733
0.0273433
0.0272189
0.027282
0.0272819
0.026417
0.0264878
0.0273752
0.02675
0.027282
0.0278052
0.0278052
0.0272821
0.0257332
0.0271773
0.027503
0.026803
0.027282
0.0278051
0.0278052
0.0272818
0.0258278
0.0271177
0.0271015
0.0264169
0.0272821
0.027282
0.02564
0.0260231
0.0272424
0.0272738
0.026487
0.025733
0.0258273
0.0260231
0.0265498
0.0273767
0.0271772
0.0271162
0.0272416
0.0280383
0.027876
0.0272845
0.0273371
0.0276359
0.0278083
0.0278776
0.0277531
0.0278161
0.027816
0.0269512
0.0270213
0.0279097
0.027284
0.027816
0.0283393
0.0283393
0.0278161
0.0262671
0.027711
0.0280372
0.027337
0.027816
0.0283392
0.0283392
0.027816
0.0263615
0.0276503
0.0276359
0.0269508
0.027816
0.027816
0.0261741
0.0265573
0.0277764
0.0278084
0.0270204
0.0262667
0.0263613
0.0265569
0.0270836
0.0279103
0.027711
0.0276512
0.0277757
0.0285724
0.0284091
0.0278181
0.027871
0.0281701
0.0283423
0.0284127
0.028287
0.02835
0.0283501
0.027485
0.0275546
0.0284428
0.0278184
0.0283502
0.0288733
0.0288733
0.0283501
0.0268011
0.0282452
0.0285713
0.0278712
0.0283501
0.0288733
0.0288733
0.0283501
0.0268961
0.0281859
0.0281699
0.027485
0.0283501
0.02835
0.026708
0.0270914
0.0283106
0.0283424
0.0275554
0.0268009
0.0268953
0.027091
0.0276179
0.0284444
0.0282453
0.0281851
0.0283101
0.0291062
0.0289449
0.0283522
0.028405
0.0287031
0.0288732
0.0289452
0.0288211
0.0288841
0.0288842
0.0280188
0.0280895
0.0289792
0.0283522
0.0288842
0.0294074
0.0294074
0.0288842
0.0273352
0.0287796
0.0291052
0.0284051
0.0288841
0.0294074
0.0294074
0.0288842
0.0274296
0.0287185
0.0287032
0.0280187
0.0288841
0.0288843
0.0272421
0.0276251
0.0288442
0.028874
0.0280884
0.0273346
0.0274294
0.0276254
0.0281518
0.0289787
0.0287795
0.0287192
0.0288444
0.0296404
0.0294776
0.0288863
0.0289391
0.0292378
0.0294095
0.0294803
0.0293552
0.0294183
0.0294183
0.0285532
0.0286241
0.0295116
0.0288863
0.0294183
0.0299415
0.0299415
0.0294184
0.0278696
0.0293136
0.0296395
0.0289393
0.0294183
0.0299415
0.0299415
0.0294182
0.0279643
0.0292541
0.0292381
0.0285531
0.0294183
0.0294184
0.0277764
0.0281594
0.0293784
0.0294106
0.0286226
0.0278688
0.0279638
0.0281596
0.0286859
0.0295125
0.0293136
0.0292541
0.0293786
0.0301745
0.0300125
0.0294207
0.0294732
0.029772
0.0299444
0.0300139
0.0298894
0.0299525
0.0299523
0.0290875
0.0291584
0.0300457
0.0294204
0.0299524
0.0304757
0.0304757
0.0299525
0.0284036
0.0298474
0.0301736
0.0294734
0.0299524
0.0304757
0.0304756
0.0299523
0.0284987
0.0297905
0.0297725
0.0290873
0.0299524
0.0299526
0.0283105
0.0286937
0.0299132
0.0299448
0.0291568
0.028403
0.0284979
0.0286937
0.0292202
0.0300448
0.0298478
0.0297874
0.0299124
0.0307088
0.0305488
0.0299546
0.0300073
0.0303061
0.0304779
0.0305456
0.0304235
0.0304866
0.0304865
0.0296216
0.0296922
0.0305797
0.0299546
0.0304866
0.0310098
0.0310099
0.0304868
0.0289376
0.030382
0.0307079
0.0300076
0.0304866
0.0310098
0.0310097
0.0304865
0.0290326
0.0303228
0.0303064
0.0296213
0.0304865
0.0304867
0.0288446
0.029228
0.0304471
0.0304786
0.0296908
0.028937
0.0290318
0.0292276
0.0297542
0.0305809
0.0303817
0.0303215
0.0304462
0.0312428
0.0310823
0.0304888
0.0305415
0.0308398
0.031012
0.03108
0.0309575
0.0310206
0.0310205
0.0301556
0.0302266
0.0311151
0.0304885
0.0310207
0.0315438
0.0315439
0.0310206
0.0294718
0.0309158
0.0312417
0.0305411
0.0310205
0.0315439
0.0315437
0.0310205
0.0295665
0.0308576
0.0308402
0.0301555
0.0310206
0.0310206
0.0293786
0.0297617
0.0309807
0.031012
0.0302254
0.0294713
0.029566
0.0297618
0.0302881
0.0311144
0.0309157
0.0308556
0.0309809
0.0317769
0.0316168
0.0310228
0.0310755
0.0313747
0.0315477
0.0316142
0.0314915
0.0315546
0.0315547
0.0306895
0.0307589
0.0316473
0.0310225
0.0315547
0.0320779
0.0320779
0.0315546
0.0300054
0.0314497
0.0317766
0.0310756
0.0315546
0.0320779
0.0320779
0.0315547
0.0301006
0.03139
0.0313742
0.0306894
0.0315547
0.0315547
0.0299127
0.030296
0.0315149
0.0315458
0.0307597
0.0300053
0.0301
0.0302958
0.0308226
0.0316487
0.0314499
0.0313897
0.0315148
0.032311
0.0321514
0.0315567
0.0316095
0.0319084
0.0320798
0.0321476
0.0320258
0.0320887
0.0320887
0.0312239
0.0312947
0.0321824
0.0315569
0.0320888
0.032612
0.032612
0.032089
0.0305402
0.0319841
0.03231
0.0316099
0.0320888
0.032612
0.0326121
0.0320886
0.0306349
0.0319246
0.0319087
0.0312236
0.0320888
0.0320888
0.0304467
0.03083
0.0320488
0.0320817
0.0312931
0.0305393
0.0306341
0.0308299
0.0313564
0.0321829
0.031984
0.0319238
0.0320489
0.0328449
0.0326818
0.0320907
0.0321435
0.0324422
0.0326144
0.0326848
0.0325597
0.0326228
0.0326228
0.0317573
0.0318275
0.0327166
0.0320907
0.0326229
0.033146
0.0331462
0.0326228
0.0310734
0.0325182
0.032844
0.0321437
0.0326228
0.033146
0.0331459
0.0326228
0.0311685
0.0324587
0.0324422
0.0317577
0.0326228
0.0326229
0.0309809
0.0313641
0.0325831
0.0326137
0.0318275
0.0310735
0.0311682
0.031364
0.0318904
0.0327179
0.0325184
0.032458
0.0325829
0.033379
0.0332174
0.0326248
0.0326776
0.0329765
0.0331481
0.0332183
0.0330938
0.0331568
0.0331568
0.0322916
0.0323614
0.0332502
0.0326249
0.0331569
0.03368
0.0336801
0.0331568
0.0316076
0.0330521
0.033378
0.0326778
0.0331568
0.0336801
0.03368
0.0331569
0.0317031
0.0329946
0.0329767
0.0322919
0.0331568
0.0331569
0.0315151
0.0318985
0.0331175
0.0331495
0.0323623
0.0316078
0.0317026
0.0318983
0.0324251
0.033251
0.0330522
0.0329919
0.0331171
0.0339132
0.0337537
0.0331589
0.0332117
0.0335105
0.0336815
0.0337495
0.0336278
0.0336908
0.0336908
0.0328257
0.0328954
0.0337847
0.0331587
0.0336908
0.0342141
0.0342141
0.0336908
0.0321414
0.0335859
0.033912
0.0332118
0.0336909
0.0342141
0.0342141
0.0336907
0.0322367
0.0335256
0.0335105
0.0328254
0.0336909
0.0336909
0.0320488
0.0324319
0.0336502
0.0336827
0.0328946
0.0321414
0.0322361
0.0324321
0.0329585
0.0337845
0.0335866
0.0335231
0.0336509
0.034447
0.0342852
0.0336927
0.0337455
0.0340444
0.0342162
0.0342862
0.0341617
0.0342248
0.0342247
0.03336
0.0334308
0.0343186
0.0336927
0.0342247
0.034748
0.034748
0.0342249