/*--------------------------------*- C++ -*----------------------------------*\
| =========                 |                                                 |
| \\      /  F ield         | OpenFOAM: The Open Source CFD Toolbox           |
|  \\    /   O peration     | Version:  v1906                                 |
|   \\  /    A nd           | Web:      www.OpenFOAM.com                      |
|    \\/     M anipulation  |                                                 |
\*---------------------------------------------------------------------------*/
FoamFile
{
    version     2.0;
    format      ascii;
    class       volVectorField;
    location    "0.5";
    object      U;
}
// * * * * * * * * * * * * * * * * * * * * * * * * * * * * * * * * * * * * * //

dimensions      [0 1 -1 0 0 0 0];


internalField   nonuniform List<vector> 
118248
(
(0.00695673 -0.00443413 0.0392166)
(6.65453e-05 -0.00207366 0.0426748)
(0.000446327 0.00362309 0.00713582)
(0.000770563 0.00232117 0.00747391)
(0.00583013 -0.00453841 0.0416699)
(0.000227585 -0.00160343 0.0420529)
(-0.00202427 -1.88362e-05 0.0425929)
(0.0023212 0.0023737 0.0107243)
(0.00133117 0.00288318 0.0124613)
(-2.13726e-05 0.00265495 0.0128156)
(-0.00177278 0.00308838 0.0115958)
(-0.00213796 0.00150834 0.00903237)
(0.00445562 -0.000371078 0.046233)
(0.003499 0.000738049 0.00756456)
(0.00280296 0.00134632 0.0124585)
(0.00142189 0.00146068 0.0143427)
(-0.000457655 0.0015185 0.0146444)
(-0.00232411 0.00255465 0.0135374)
(-0.00330517 0.00165777 0.0106313)
(0.0123635 2.64055e-05 0.0374178)
(-0.00430908 0.00665534 0.0402259)
(0.00211919 0.000609389 0.00786806)
(0.00256679 1.55473e-06 0.0128092)
(0.00148678 -0.000456093 0.0146384)
(-0.000529699 -0.00054345 0.0149863)
(-0.00263098 -0.000447692 0.0138946)
(-0.00438828 -0.00035622 0.0110745)
(0.0106986 -0.00126086 0.039818)
(-0.0043666 0.0049546 0.041864)
(0.00307884 -0.00175037 0.0115987)
(0.00253249 -0.00232394 0.0135383)
(-0.000448114 -0.00263963 0.0138893)
(-0.00280161 -0.00281596 0.0125895)
(-0.00221138 -0.0018796 0.00872426)
(0.00494353 0.000388547 0.0354514)
(-0.00158045 -0.000136117 0.0416097)
(0.00147607 -0.00213914 0.00909256)
(0.00163492 -0.00330843 0.0106393)
(-0.000397718 -0.0044018 0.0110747)
(-0.00192618 -0.00220334 0.00872331)
(-0.00146526 -0.00130748 0.00759591)
(-0.000224418 0.00450047 0.0463684)
(2.50252e-06 0.01235 0.0374458)
(-0.00129563 0.0106621 0.0398498)
(0.000666367 0.00511673 0.0354192)
(-2.55845e-05 -0.00020928 -0.00715929)
(-0.00344152 -0.00358304 -0.00870032)
(-0.0102791 -0.0116049 0.0192323)
(0.000573876 -0.0125183 0.0185945)
(0.0132081 -0.00953997 -0.00728216)
(0.00274745 0.000654148 -0.00831661)
(-0.0035775 -0.00348618 -0.00878294)
(-0.0157389 -0.0157187 0.0205991)
(0.000648598 0.00257051 0.00734532)
(-0.000647958 0.00257104 0.00734412)
(0.0304506 -0.0122082 0.0198804)
(0.0230549 -0.00487902 0.017406)
(0.00208579 0.00180691 -0.00839555)
(-0.0116078 -0.0102924 0.0191995)
(0.0025667 0.000653839 0.00733984)
(-0.00124626 -0.00123949 0.00780374)
(0.00124645 -0.00123948 0.00780362)
(-0.00256546 0.000653904 0.00734066)
(0.0371299 0.000681512 0.0166498)
(0.0165941 -0.000585459 -0.00550471)
(-0.000212535 -6.19571e-06 -0.00721265)
(-0.012514 0.000558334 0.0185728)
(0.00256373 -0.000647938 0.00733978)
(-0.00123669 0.00124041 0.00780659)
(0.00123559 0.00124042 0.007806)
(-0.00256437 -0.000648271 0.0073385)
(0.0364691 0.000366308 0.0165364)
(0.0171758 0.00077506 -0.00542935)
(-0.00951464 0.0131014 -0.00737149)
(-0.0122091 0.0304499 0.0198618)
(0.000654966 -0.0025616 0.0073367)
(-0.000655998 -0.00256158 0.00733813)
(0.0291236 0.0291045 0.0191574)
(0.0183642 0.00163787 0.0182566)
(0.00697586 0.00152545 -0.00858881)
(0.000691571 0.00258538 -0.00773641)
(-0.00485617 0.0230854 0.0173903)
(0.000677404 0.0371409 0.01664)
(0.00036179 0.0364601 0.0165338)
(0.00163774 0.0183544 0.0182635)
(0.00856025 0.00851649 0.0164026)
(0.00172547 0.00203781 -0.00835781)
(-0.000610291 0.0165856 -0.00551547)
(0.0007296 0.017135 -0.00546038)
(0.00152254 0.00697122 -0.00860104)
(-5.96874e-05 -0.000259395 -0.013443)
(-0.00363305 -0.00365859 -0.0167525)
(-0.0107235 -0.0148545 0.010515)
(0.000733735 -0.0156782 0.00991589)
(0.0151662 -0.0103772 -0.0174108)
(0.00249848 0.00121317 -0.0152068)
(-0.00366533 -0.00356239 -0.0167171)
(-0.0162939 -0.0163058 0.00894334)
(0.000391111 0.00176205 0.00877915)
(-0.000391183 0.00176246 0.00877937)
(0.0299339 -0.0138483 0.00914524)
(0.024785 -0.00564264 0.00993415)
(0.00284709 0.00267709 -0.0158306)
(-0.0148509 -0.0107199 0.0105078)
(0.00176193 0.000390592 0.00877766)
(-0.00157203 -0.00157008 0.00872548)
(0.00157265 -0.00156995 0.0087256)
(-0.00176147 0.000390979 0.00877773)
(0.0370913 8.71437e-05 0.00919534)
(0.0203597 -0.00103255 -0.0138087)
(-0.000262044 -3.88666e-05 -0.0134351)
(-0.0156835 0.000733129 0.00991515)
(0.00176522 -0.000391201 0.00877866)
(-0.00157109 0.00156738 0.0087249)
(0.00157219 0.00156774 0.00872515)
(-0.00176538 -0.000391071 0.00877828)
(0.0364061 0.000757138 0.00916629)
(0.0203597 9.83906e-05 -0.0140897)
(-0.0103689 0.0151581 -0.0174237)
(-0.0138544 0.0299324 0.00914313)
(0.000390579 -0.00176036 0.00877637)
(-0.000389804 -0.00175905 0.00877683)
(0.0278281 0.0278244 0.00930171)
(0.0208993 0.00316924 0.00996385)
(0.00801782 0.00146165 -0.0169747)
(0.00121777 0.00253364 -0.0155402)
(-0.00563018 0.024768 0.00993448)
(9.42975e-05 0.0370871 0.00919163)
(0.000758779 0.0363913 0.00916314)
(0.0031806 0.0209063 0.0099543)
(0.0104844 0.0104935 0.0105355)
(0.00270273 0.00285665 -0.0158343)
(-0.00101386 0.0203504 -0.0138195)
(6.20909e-05 0.0203011 -0.0140838)
(0.0014754 0.00800914 -0.0169694)
(-6.07632e-05 -0.000260548 -0.0137734)
(-0.00367261 -0.00366898 -0.0171333)
(-0.0107663 -0.0149674 0.0101956)
(0.000704653 -0.0157844 0.00959095)
(0.015274 -0.0103597 -0.0177773)
(0.00261407 0.0011556 -0.0158993)
(-0.00367738 -0.00360015 -0.0171479)
(-0.0163187 -0.0163338 0.00875844)
(0.000406294 0.00159588 0.0088926)
(-0.000406175 0.00159637 0.00889231)
(0.030116 -0.0138426 0.00887166)
(0.0249287 -0.00567703 0.00949294)
(0.00287976 0.00272003 -0.0162125)
(-0.0149629 -0.010757 0.0101919)
(0.00159433 0.00040409 0.00889247)
(-0.00156333 -0.00156563 0.00886458)
(0.00156429 -0.00156508 0.00886465)
(-0.00159339 0.00040295 0.00889254)
(0.0373915 -3.78217e-05 0.00885621)
(0.0205228 -0.00112458 -0.0141463)
(-0.000262338 -3.7497e-05 -0.0137632)
(-0.0157902 0.000710737 0.00959155)
(0.00159733 -0.000405505 0.00889301)
(-0.00156493 0.00156322 0.00886361)
(0.00156415 0.00156413 0.00886367)
(-0.00159995 -0.000405939 0.00889272)
(0.0366224 0.000714281 0.00882489)
(0.020445 3.85934e-06 -0.0144018)
(-0.0103501 0.0152869 -0.0177703)
(-0.013851 0.0301164 0.00887002)
(0.000404265 -0.0015964 0.00889179)
(-0.000402856 -0.00159382 0.00889182)
(0.0277906 0.0277971 0.00890134)
(0.0208911 0.00326969 0.00948743)
(0.00799857 0.00148817 -0.0173319)
(0.00117522 0.00272341 -0.0159954)
(-0.00567302 0.0249041 0.00951065)
(-3.07258e-05 0.0373887 0.00885707)
(0.000720768 0.0366152 0.00882389)
(0.00328413 0.0209112 0.00948651)
(0.0104936 0.0105318 0.0100728)
(0.00275444 0.002899 -0.0162324)
(-0.00110156 0.0205157 -0.0141487)
(1.12129e-05 0.0204234 -0.0144165)
(0.00152509 0.00799511 -0.0173264)
(-5.85789e-05 -0.000259334 -0.0137668)
(-0.00360759 -0.00365761 -0.0171168)
(-0.0107699 -0.0149571 0.0102084)
(0.000703647 -0.015777 0.00960173)
(0.0152861 -0.0103444 -0.017749)
(0.00266827 0.00113352 -0.0159387)
(-0.00369438 -0.00366249 -0.0171392)
(-0.0163156 -0.0163084 0.00878699)
(0.00043389 0.00157655 0.00889703)
(-0.000433891 0.00157677 0.00889652)
(0.0301293 -0.0138064 0.00888551)
(0.0249255 -0.00568285 0.0094998)
(0.00289567 0.00274747 -0.0162147)
(-0.014958 -0.010771 0.0102034)
(0.00157463 0.000433183 0.00889622)
(-0.00155967 -0.00156127 0.00890321)
(0.00155942 -0.00156158 0.00890327)
(-0.00157408 0.00043327 0.0088968)
(0.0374329 -5.89863e-05 0.00887191)
(0.0205313 -0.00112457 -0.0141281)
(-0.000262873 -3.96248e-05 -0.013756)
(-0.0157819 0.000697867 0.00960396)
(0.00157618 -0.000432071 0.00889737)
(-0.00156011 0.00156218 0.00890284)
(0.00156048 0.00156124 0.00890266)
(-0.00157498 -0.000432388 0.00889694)
(0.0366431 0.000701409 0.00883943)
(0.0204238 -1.59155e-07 -0.0144156)
(-0.0103273 0.0152759 -0.0177442)
(-0.0138091 0.0301307 0.00888656)
(0.000431995 -0.00157541 0.00889668)
(-0.000432973 -0.00157654 0.00889681)
(0.0277803 0.0277776 0.00890667)
(0.0208767 0.00328206 0.00948855)
(0.007984 0.00153151 -0.0173054)
(0.00123232 0.0025703 -0.0161827)
(-0.00565655 0.0249214 0.00950081)
(-5.55342e-05 0.0374371 0.00887113)
(0.000696812 0.0366311 0.00884134)
(0.00328569 0.020864 0.00949426)
(0.0105411 0.0104717 0.0100677)
(0.0027 0.00286509 -0.0162254)
(-0.00111683 0.0205347 -0.0141316)
(-3.88966e-05 0.0204112 -0.0143788)
(0.00150562 0.00798042 -0.0173163)
(-5.75045e-05 -0.000258572 -0.0137636)
(-0.00359964 -0.00365204 -0.0171825)
(-0.0107711 -0.0149562 0.0102107)
(0.000702779 -0.0157759 0.00960443)
(0.0152983 -0.0103348 -0.0177414)
(0.0026774 0.00117053 -0.0156799)
(-0.00368316 -0.00369336 -0.0170706)
(-0.0163148 -0.0162972 0.008791)
(0.000437262 0.00157324 0.00889446)
(-0.000438691 0.00157401 0.00889387)
(0.0301291 -0.0137966 0.00888413)
(0.0249246 -0.0056774 0.00951144)
(0.00288853 0.00273139 -0.0162149)
(-0.0149552 -0.0107767 0.0102107)
(0.00157195 0.000439108 0.00889333)
(-0.001561 -0.00155964 0.00891122)
(0.00155998 -0.00155987 0.00891131)
(-0.00157167 0.00043849 0.00889356)
(0.0374383 -6.22009e-05 0.00887385)
(0.0205235 -0.00113229 -0.0141279)
(-0.000263157 -4.08639e-05 -0.0137534)
(-0.015782 0.000695806 0.00960798)
(0.00157149 -0.000437028 0.00889397)
(-0.00156071 0.00156092 0.00891083)
(0.00156095 0.00156059 0.00891077)
(-0.00157249 -0.000437616 0.00889355)
(0.0366423 0.000696764 0.00884321)
(0.0204403 1.39908e-05 -0.0143903)
(-0.0103257 0.0152821 -0.0177434)
(-0.0137977 0.030128 0.00888437)
(0.000437767 -0.00157332 0.00889335)
(-0.000437436 -0.00157224 0.00889353)
(0.0277672 0.0277745 0.00890286)
(0.0208627 0.00328623 0.00949152)
(0.00797968 0.00152758 -0.0173119)
(0.00123152 0.00256885 -0.0162148)
(-0.00565848 0.0249184 0.00951147)
(-6.06973e-05 0.0374426 0.00887454)
(0.000695295 0.0366359 0.00884252)
(0.00328236 0.0208606 0.00949262)
(0.0104916 0.0105127 0.0100657)
(0.0026964 0.00286217 -0.0162095)
(-0.0011338 0.0205239 -0.0141266)
(2.09861e-06 0.0204175 -0.0143901)
(0.00151608 0.00798206 -0.0173031)
(-5.72813e-05 -0.00025833 -0.0137594)
(-0.00360199 -0.00364985 -0.0172005)
(-0.0107694 -0.0149586 0.0102134)
(0.000706715 -0.0157776 0.00960724)
(0.0153047 -0.0103365 -0.0177392)
(0.00272087 0.00118735 -0.0162372)
(-0.00368435 -0.00369392 -0.0170559)
(-0.0163122 -0.0162977 0.00879212)
(0.000438712 0.00156937 0.00889402)
(-0.000440329 0.00157083 0.00889316)
(0.0301286 -0.0137991 0.0088857)
(0.0249075 -0.00567794 0.00951152)
(0.00289974 0.00275336 -0.0162248)
(-0.0149561 -0.0107776 0.0102107)
(0.00157181 0.000439518 0.00889308)
(-0.00155963 -0.00155976 0.00891304)
(0.00155871 -0.00155975 0.00891299)
(-0.00157109 0.000439334 0.00889354)
(0.0374338 -6.22053e-05 0.00887634)
(0.0205231 -0.00113856 -0.0141305)
(-0.000263064 -4.12549e-05 -0.013756)
(-0.0157825 0.000694438 0.00960712)
(0.00157119 -0.000439255 0.00889397)
(-0.00155941 0.0015594 0.00891283)
(0.00155926 0.00155915 0.00891283)
(-0.00157236 -0.000439934 0.00889331)
(0.0366451 0.00069833 0.00884264)
(0.0204722 4.29889e-05 -0.0143726)
(-0.0103365 0.0152812 -0.0177487)
(-0.013795 0.0301257 0.00888594)
(0.000439399 -0.00157107 0.00889263)
(-0.000439335 -0.00157008 0.00889356)
(0.0277691 0.0277746 0.00890153)
(0.0208589 0.00328007 0.00949321)
(0.00799092 0.00151033 -0.0173113)
(0.00115197 0.00262283 -0.0158655)
(-0.0056649 0.0249295 0.00948923)
(-6.21565e-05 0.037444 0.00887444)
(0.000696659 0.0366373 0.00884302)
(0.0032868 0.0208633 0.00948839)
(0.0105086 0.0104936 0.0100633)
(0.00271367 0.00287667 -0.0162005)
(-0.0011345 0.0205212 -0.0141241)
(2.78163e-06 0.0204156 -0.0143905)
(0.00151981 0.00797907 -0.0173076)
(-5.69924e-05 -0.000258337 -0.0137628)
(-0.00366879 -0.00367876 -0.0170647)
(-0.0107707 -0.0149561 0.0102143)
(0.000707063 -0.0157767 0.00960616)
(0.0153062 -0.0103343 -0.0177358)
(0.00272335 0.00118342 -0.0162193)
(-0.00365734 -0.00362287 -0.0171829)
(-0.0163052 -0.0163051 0.00879159)
(0.000439713 0.00157013 0.00889364)
(-0.000439624 0.00157156 0.00889329)
(0.0301294 -0.0137993 0.00888537)
(0.0249063 -0.00567452 0.00950965)
(0.00290133 0.00275511 -0.0162277)
(-0.014958 -0.0107777 0.0102074)
(0.00157135 0.000439543 0.00889269)
(-0.00155938 -0.00155964 0.0089133)
(0.00155935 -0.00155956 0.00891325)
(-0.00156965 0.000439391 0.00889354)
(0.0374333 -6.05453e-05 0.00887576)
(0.0205272 -0.00113181 -0.0141295)
(-0.000262867 -4.05326e-05 -0.0137516)
(-0.0157814 0.000693333 0.00960766)
(0.00157045 -0.000439441 0.00889399)
(-0.0015595 0.00155968 0.00891326)
(0.00155932 0.00155932 0.0089133)
(-0.00157134 -0.000439332 0.00889347)
(0.0366428 0.000697903 0.00884328)
(0.0204381 1.39851e-05 -0.0143903)
(-0.0103252 0.0152743 -0.0177469)
(-0.0137938 0.0301297 0.00888489)
(0.000439219 -0.00157103 0.00889303)
(-0.000439721 -0.00157005 0.00889356)
(0.0277719 0.0277699 0.00890109)
(0.0208657 0.00328377 0.00949193)
(0.00798085 0.00153402 -0.017301)
(0.00122266 0.00253159 -0.0156336)
(-0.00565861 0.0249354 0.00951033)
(-6.46615e-05 0.0374475 0.00887471)
(0.000690988 0.0366332 0.00884456)
(0.00328426 0.0208545 0.00949328)
(0.0105403 0.010466 0.0100708)
(0.00267049 0.0028491 -0.0162006)
(-0.00112586 0.0205338 -0.0141201)
(-3.6264e-05 0.0203993 -0.0144078)
(0.00151219 0.00797716 -0.0173105)
(-5.76765e-05 -0.000258739 -0.0137632)
(-0.0036684 -0.0036779 -0.0170622)
(-0.0107706 -0.0149559 0.010212)
(0.000705508 -0.0157769 0.00960562)
(0.0152897 -0.0103323 -0.0177403)
(0.00262181 0.00121533 -0.016251)
(-0.00365749 -0.00362427 -0.0171896)
(-0.0163068 -0.016303 0.00879115)
(0.000439816 0.00156994 0.00889361)
(-0.000439718 0.00157037 0.00889274)
(0.0301296 -0.0137975 0.00888385)
(0.0249109 -0.00567219 0.00951943)
(0.00287893 0.00272341 -0.0162282)
(-0.0149588 -0.0107768 0.0102082)
(0.00157089 0.00043923 0.00889258)
(-0.00155908 -0.00155922 0.0089131)
(0.00155895 -0.00155918 0.00891319)
(-0.00157089 0.000440033 0.008893)
(0.0374351 -6.13818e-05 0.00887477)
(0.0205289 -0.00113881 -0.014133)
(-0.000262685 -4.0175e-05 -0.0137528)
(-0.0157823 0.000694497 0.00960668)
(0.0015709 -0.000439288 0.00889344)
(-0.00155946 0.00155926 0.00891303)
(0.00155933 0.00155944 0.00891286)
(-0.00157143 -0.000438738 0.00889243)
(0.0366423 0.000696565 0.00884282)
(0.0204405 1.23813e-05 -0.0143902)
(-0.010329 0.0152822 -0.0177481)
(-0.0137962 0.0301293 0.00888415)
(0.000439409 -0.0015703 0.00889234)
(-0.000439775 -0.00156982 0.00889315)
(0.0277708 0.0277704 0.00890069)
(0.0208638 0.00328263 0.00948835)
(0.00798188 0.00152264 -0.0173002)
(0.00118474 0.00261966 -0.0156102)
(-0.00565951 0.0249304 0.0094948)
(-6.3193e-05 0.0374442 0.0088737)
(0.000695183 0.036636 0.00884305)
(0.00328479 0.0208578 0.00949555)
(0.0105301 0.0104737 0.0100696)
(0.00270427 0.00287165 -0.0161978)
(-0.00113189 0.0205184 -0.0141243)
(4.18902e-06 0.0204184 -0.0143912)
(0.00152146 0.00797875 -0.0173149)
(-6.05107e-05 -0.000259794 -0.0137642)
(-0.00367481 -0.00366839 -0.0171293)
(-0.0107785 -0.0149603 0.0102089)
(0.000696685 -0.0157772 0.00960579)
(0.0152848 -0.0103385 -0.0177491)
(0.00261776 0.00115968 -0.0158783)
(-0.00367091 -0.00360237 -0.017117)
(-0.0162971 -0.0163119 0.00879185)
(0.000439428 0.00156992 0.0088935)
(-0.000439517 0.00157053 0.00889306)
(0.0301258 -0.0137928 0.00888485)
(0.0249285 -0.00567179 0.00949497)
(0.00287722 0.00271536 -0.0162051)
(-0.0149553 -0.0107694 0.0102082)
(0.00157021 0.000439188 0.0088925)
(-0.00155844 -0.00155907 0.00891322)
(0.00155861 -0.00155895 0.00891316)
(-0.00156933 0.000439296 0.00889328)
(0.0374376 -6.53444e-05 0.00887399)
(0.0205216 -0.00114553 -0.014134)
(-0.000261993 -3.79519e-05 -0.0137524)
(-0.015782 0.000701116 0.00960667)
(0.00157029 -0.000439116 0.00889354)
(-0.00155877 0.00155883 0.00891308)
(0.00155885 0.00155889 0.00891297)
(-0.00157059 -0.000439207 0.00889388)
(0.0366456 0.000696724 0.00884222)
(0.0204713 3.98926e-05 -0.0143648)
(-0.0103243 0.0152813 -0.0177426)
(-0.0138001 0.030128 0.00888298)
(0.000439467 -0.00157028 0.00889268)
(-0.000439257 -0.00156987 0.00889353)
(0.027769 0.027774 0.00890034)
(0.0208526 0.00327636 0.00949241)
(0.00799151 0.00149756 -0.0173091)
(0.00120636 0.00262921 -0.0159911)
(-0.00565931 0.0249085 0.0095203)
(-5.72843e-05 0.0374381 0.0088741)
(0.000700932 0.0366357 0.00884148)
(0.00329114 0.020869 0.00948928)
(0.0104829 0.0105163 0.0100656)
(0.00271439 0.00287218 -0.0162293)
(-0.00112276 0.0205221 -0.0141325)
(9.14666e-06 0.0204161 -0.0143938)
(0.00153886 0.00797857 -0.0173057)
(-5.81504e-05 -0.000258787 -0.013764)
(-0.00361952 -0.00365514 -0.0171852)
(-0.0107744 -0.0149597 0.0102085)
(0.000699566 -0.0157766 0.00960543)
(0.0152909 -0.0103313 -0.0177491)
(0.00261846 0.00118984 -0.0156369)
(-0.00368129 -0.00367206 -0.0170657)
(-0.0163049 -0.016305 0.00879184)
(0.000439518 0.00157056 0.00889344)
(-0.000439154 0.00157004 0.00889319)
(0.0301305 -0.0137939 0.00888352)
(0.0249327 -0.00566571 0.00950904)
(0.00287397 0.00271075 -0.0161945)
(-0.0149551 -0.0107739 0.0102108)
(0.00156968 0.000439869 0.00889327)
(-0.00155895 -0.00155867 0.00891285)
(0.00155909 -0.00155894 0.0089129)
(-0.00156983 0.0004386 0.00889219)
(0.0374431 -6.25088e-05 0.0088745)
(0.0205309 -0.00111865 -0.0141204)
(-0.000262707 -4.01347e-05 -0.013753)
(-0.0157826 0.000700019 0.00960753)
(0.00156999 -0.000438984 0.00889317)
(-0.00155879 0.00155883 0.00891284)
(0.00155879 0.00155851 0.00891278)
(-0.00157023 -0.000440118 0.00889258)
(0.0366399 0.0006934 0.00884196)
(0.020389 -3.89924e-05 -0.0144008)
(-0.0103292 0.0152813 -0.0177398)
(-0.0137998 0.0301274 0.00888418)
(0.000439165 -0.0015699 0.00889279)
(-0.000439178 -0.00156988 0.0088927)
(0.0277672 0.0277748 0.00889965)
(0.0208613 0.00328559 0.0094889)
(0.00797405 0.00152993 -0.0173072)
(0.00121112 0.0026221 -0.016225)
(-0.00566379 0.024909 0.00950621)
(-6.0734e-05 0.0374379 0.00887399)
(0.000696534 0.0366337 0.00884271)
(0.00328274 0.0208595 0.00949232)
(0.0104912 0.0105148 0.0100617)
(0.00272133 0.0028788 -0.0162352)
(-0.00113396 0.0205269 -0.014132)
(1.94772e-06 0.0204166 -0.0143921)
(0.00151794 0.00798139 -0.0173017)
(-5.85085e-05 -0.000259136 -0.0137636)
(-0.00360163 -0.00364837 -0.0171677)
(-0.010773 -0.0149593 0.0102075)
(0.000702179 -0.0157775 0.00960411)
(0.0152863 -0.0103415 -0.0177478)
(0.00266721 0.00113324 -0.0159355)
(-0.0036862 -0.00369331 -0.0170812)
(-0.0163129 -0.0162981 0.00879089)
(0.000438747 0.00156946 0.00889304)
(-0.000439654 0.0015701 0.00889233)
(0.0301267 -0.0137949 0.00888305)
(0.0249238 -0.00568027 0.00950353)
(0.00289239 0.00274098 -0.0162117)
(-0.0149573 -0.0107772 0.0102054)
(0.00156965 0.000439461 0.00889203)
(-0.00155869 -0.00155874 0.0089128)
(0.00155806 -0.00155837 0.00891261)
(-0.00156979 0.000439417 0.00889292)
(0.0374376 -6.41195e-05 0.00887301)
(0.0205247 -0.00114042 -0.0141315)
(-0.000262724 -4.02006e-05 -0.0137541)
(-0.0157818 0.000696106 0.00960539)
(0.00156942 -0.000439243 0.00889347)
(-0.0015584 0.00155827 0.00891271)
(0.00155882 0.00155848 0.00891255)
(-0.00157073 -0.000438697 0.00889307)
(0.0366419 0.0006941 0.00884214)
(0.0204384 1.0148e-05 -0.0143925)
(-0.0103203 0.0152755 -0.0177427)
(-0.0137988 0.0301302 0.00888305)
(0.000439373 -0.00157093 0.00889214)
(-0.000438646 -0.00156865 0.00889355)
(0.0277676 0.0277744 0.00889871)
(0.0208591 0.00327942 0.00949092)
(0.00798319 0.00151686 -0.0173101)
(0.00123443 0.00256646 -0.0159258)
(-0.00565235 0.0249157 0.00951029)
(-5.89537e-05 0.0374409 0.00887333)
(0.000699059 0.0366367 0.00884027)
(0.00328744 0.0208632 0.00948854)
(0.0105105 0.0104941 0.010063)
(0.00269512 0.00285964 -0.0162196)
(-0.00112472 0.0205185 -0.0141295)
(6.84399e-06 0.0204158 -0.0143972)
(0.00151885 0.00797971 -0.0173092)
(-5.95954e-05 -0.000259512 -0.0137637)
(-0.00363065 -0.0036627 -0.0171501)
(-0.0107764 -0.0149602 0.0102082)
(0.000700288 -0.0157775 0.00960353)
(0.0152876 -0.0103408 -0.0177466)
(0.00266805 0.0011385 -0.0159253)
(-0.00368129 -0.00364249 -0.0171115)
(-0.0162993 -0.0163083 0.0087912)
(0.00043822 0.00156908 0.00889401)
(-0.000440007 0.00157057 0.00889322)
(0.0301266 -0.013795 0.00888215)
(0.0249247 -0.00568035 0.00949829)
(0.00289417 0.00274399 -0.0162196)
(-0.0149562 -0.0107705 0.0102087)
(0.00156951 0.000439666 0.00889348)
(-0.00155848 -0.0015579 0.00891307)
(0.0015573 -0.00155827 0.00891311)
(-0.00156859 0.000438649 0.00889339)
(0.0374406 -6.46357e-05 0.0088725)
(0.0205226 -0.00114015 -0.0141361)
(-0.000262094 -3.82311e-05 -0.0137544)
(-0.0157827 0.000701431 0.0096064)
(0.00156851 -0.000438459 0.00889363)
(-0.00155905 0.00155854 0.00891307)
(0.00155742 0.00155742 0.00891301)
(-0.00157072 -0.000439734 0.00889289)
(0.0366357 0.000692198 0.00884191)
(0.0204602 1.72818e-05 -0.0143742)
(-0.010325 0.0152829 -0.0177457)
(-0.0137991 0.0301296 0.0088823)
(0.000437699 -0.0015695 0.00889307)
(-0.000440087 -0.0015695 0.00889304)
(0.0277679 0.0277712 0.00889775)
(0.0208583 0.00327824 0.00949161)
(0.00798918 0.00151019 -0.0173142)
(0.00120694 0.00262822 -0.0160128)
(-0.00566252 0.0249116 0.00952702)
(-5.84459e-05 0.0374397 0.00887368)
(0.000691835 0.0366276 0.00884267)
(0.00328705 0.0208596 0.00948823)
(0.0105116 0.0104934 0.0100617)
(0.00271993 0.00287406 -0.0162217)
(-0.00110552 0.0205378 -0.0141331)
(-6.72318e-05 0.0203731 -0.0144015)
(0.00152031 0.00797251 -0.0173093)
(-5.67842e-05 -0.00025822 -0.0137625)
(-0.00362942 -0.00366755 -0.0170432)
(-0.0107716 -0.0149559 0.0102093)
(0.000706096 -0.0157764 0.00960469)
(0.0153039 -0.0103363 -0.0177409)
(0.00272085 0.00118737 -0.0162393)
(-0.00366599 -0.00367278 -0.0172018)
(-0.0163116 -0.0163005 0.00879199)
(0.000438613 0.00156979 0.00889416)
(-0.000439471 0.00157042 0.0088933)
(0.030128 -0.0137993 0.00888235)
(0.0249074 -0.00567713 0.009511)
(0.00290033 0.00275454 -0.0162238)
(-0.014962 -0.0107794 0.010206)
(0.00156791 0.00043896 0.00889285)
(-0.0015587 -0.00155783 0.00891341)
(0.0015574 -0.00155787 0.0089135)
(-0.00156894 0.000439341 0.00889417)
(0.0374358 -6.12764e-05 0.00887395)
(0.0205163 -0.00114193 -0.0141311)
(-0.000262857 -4.09576e-05 -0.013754)
(-0.0157841 0.000693088 0.00960666)
(0.00156809 -0.000439512 0.00889415)
(-0.00155846 0.00155765 0.00891325)
(0.00155785 0.00155797 0.00891341)
(-0.00156976 -0.000439078 0.00889419)
(0.0366406 0.000699864 0.00884133)
(0.0204632 5.49991e-05 -0.0143809)
(-0.0103308 0.015283 -0.0177506)
(-0.0137967 0.0301285 0.00888333)
(0.000438772 -0.00157024 0.00889324)
(-0.000439004 -0.00156918 0.00889442)
(0.027773 0.0277704 0.00889861)
(0.0208667 0.00328322 0.00948863)
(0.0079883 0.00153099 -0.0173043)
(0.00118809 0.00261865 -0.0156047)
(-0.00566313 0.0249298 0.0095013)
(-6.3224e-05 0.0374431 0.00887295)
(0.000696772 0.0366356 0.00884191)
(0.00328693 0.020857 0.00949164)
(0.0105403 0.0104706 0.010068)
(0.00270705 0.00287319 -0.0162098)
(-0.00113251 0.0205174 -0.0141274)
(4.17518e-06 0.020417 -0.0143928)
(0.00151373 0.00797931 -0.0173077)
(-5.71079e-05 -0.000258267 -0.0137628)
(-0.00360712 -0.00365796 -0.0171409)
(-0.0107727 -0.0149584 0.0102094)
(0.000703836 -0.0157763 0.00960555)
(0.0153004 -0.0103327 -0.0177448)
(0.00267238 0.00120376 -0.0161728)
(-0.00369215 -0.00366257 -0.0171105)
(-0.0163091 -0.0162989 0.00879166)
(0.000439515 0.00156803 0.00889434)
(-0.000438297 0.00156843 0.00889402)
(0.0301294 -0.0137992 0.00888368)
(0.0249134 -0.0056667 0.00950515)
(0.00288684 0.00273216 -0.0162168)
(-0.0149591 -0.0107757 0.0102041)
(0.00157004 0.000439099 0.00889333)
(-0.00155742 -0.00155798 0.00891349)
(0.00155805 -0.00155772 0.00891343)
(-0.00156923 0.000439104 0.00889356)
(0.0374366 -6.03044e-05 0.00887463)
(0.0205321 -0.00112493 -0.0141311)
(-0.000262685 -3.98517e-05 -0.0137546)
(-0.015783 0.000696177 0.00960432)
(0.00156969 -0.000439164 0.00889435)
(-0.00155741 0.00155746 0.00891334)
(0.00155789 0.00155759 0.0089133)
(-0.00156898 -0.000438637 0.00889347)
(0.0366445 0.00070006 0.00884086)
(0.0204159 -3.82935e-06 -0.0144202)
(-0.0103287 0.015276 -0.0177489)
(-0.0137964 0.0301284 0.00888185)
(0.000438659 -0.00156893 0.00889358)
(-0.000438967 -0.00156865 0.00889375)
(0.0277729 0.0277707 0.00889863)
(0.0208687 0.00328356 0.00948789)
(0.00798063 0.00153767 -0.0172982)
(0.00119842 0.00258809 -0.0156803)
(-0.00566718 0.0249282 0.00951112)
(-6.27784e-05 0.037442 0.00887293)
(0.000696247 0.0366339 0.00884144)
(0.00328483 0.0208555 0.00949158)
(0.0105439 0.0104675 0.0100676)
(0.00268699 0.00286097 -0.0162118)
(-0.00113958 0.0205256 -0.0141316)
(-3.32006e-07 0.0204169 -0.0143977)
(0.00151306 0.00797945 -0.0173085)
(-5.96892e-05 -0.00025951 -0.0137641)
(-0.00365288 -0.00366368 -0.0171299)
(-0.0107754 -0.0149603 0.010208)
(0.000700932 -0.0157769 0.00960293)
(0.0152731 -0.0103376 -0.017751)
(0.00258209 0.00115995 -0.015914)
(-0.00368185 -0.00361888 -0.0171182)
(-0.0163062 -0.016303 0.00879135)
(0.000438819 0.0015679 0.00889403)
(-0.000438806 0.00156896 0.00889334)
(0.0301292 -0.0137953 0.00888121)
(0.0249255 -0.00567009 0.00949977)
(0.00286939 0.00270359 -0.0162215)
(-0.0149597 -0.0107738 0.0102024)
(0.00156915 0.000439032 0.00889271)
(-0.00155695 -0.00155739 0.00891336)
(0.00155753 -0.00155711 0.00891315)
(-0.00156795 0.000438196 0.00889374)
(0.0374389 -6.21185e-05 0.00887271)
(0.0205401 -0.00113246 -0.0141312)
(-0.000261751 -3.76793e-05 -0.0137519)
(-0.0157838 0.000700578 0.00960484)
(0.00156864 -0.000438387 0.00889395)
(-0.00155742 0.00155708 0.00891334)
(0.00155675 0.00155735 0.00891319)
(-0.00156949 -0.000439449 0.00889381)
(0.0366379 0.000692806 0.00884107)
(0.0203906 -4.38611e-05 -0.0144063)
(-0.0103294 0.0152964 -0.0177469)
(-0.0138023 0.0301277 0.00888204)
(0.000438797 -0.00156819 0.00889344)
(-0.000438972 -0.00156751 0.00889394)
(0.027767 0.0277737 0.0088983)
(0.0208566 0.00328021 0.00948986)
(0.00797827 0.0015107 -0.0173004)
(0.00117989 0.00272595 -0.0159718)
(-0.00566946 0.0249052 0.00951787)
(-5.95198e-05 0.0374352 0.00887277)
(0.000698889 0.0366338 0.00884137)
(0.00328628 0.0208641 0.00948961)
(0.0105047 0.0105015 0.0100628)
(0.00274971 0.00289589 -0.0162268)
(-0.00112137 0.020519 -0.0141356)
(7.30697e-06 0.020416 -0.0143984)
(0.00153152 0.00797813 -0.0173087)
(-5.96197e-05 -0.000259298 -0.0137647)
(-0.00366886 -0.00366371 -0.0172021)
(-0.0107771 -0.0149628 0.0102077)
(0.000696737 -0.0157766 0.00960489)
(0.0152758 -0.0103266 -0.0177499)
(0.0025286 0.00122705 -0.0156201)
(-0.00366938 -0.00363282 -0.0170437)
(-0.016301 -0.01631 0.00879175)
(0.000438329 0.00156762 0.00889441)
(-0.000439705 0.00156896 0.00889437)
(0.0301309 -0.0137932 0.00888192)
(0.0249344 -0.00565961 0.0095037)
(0.00284832 0.00266701 -0.0162109)
(-0.0149559 -0.0107754 0.0102076)
(0.00156888 0.000439203 0.00889371)
(-0.00155677 -0.0015573 0.00891306)
(0.001557 -0.00155697 0.00891313)
(-0.00156748 0.000438009 0.00889351)
(0.0374394 -6.35046e-05 0.00887132)
(0.0205263 -0.00114762 -0.0141318)
(-0.000262374 -3.93531e-05 -0.0137533)
(-0.0157824 0.000699783 0.00960645)
(0.00156786 -0.000438163 0.00889403)
(-0.00155703 0.00155706 0.00891309)
(0.00155675 0.00155711 0.00891306)
(-0.00156908 -0.000439187 0.00889412)
(0.0366415 0.000694597 0.00884087)
(0.0204391 5.5574e-06 -0.0143986)
(-0.0103305 0.0152813 -0.0177478)
(-0.0137994 0.0301272 0.00888102)
(0.000439165 -0.00156874 0.00889367)
(-0.000438335 -0.00156735 0.00889387)
(0.0277678 0.0277739 0.00889688)
(0.0208511 0.00327619 0.00949321)
(0.00798284 0.00150287 -0.017308)
(0.00121507 0.00261928 -0.0162488)
(-0.00566991 0.024912 0.00951873)
(-6.05056e-05 0.0374393 0.00887251)
(0.000698784 0.036637 0.0088398)
(0.00328839 0.0208714 0.0094859)
(0.0104838 0.0105195 0.0100643)
(0.00272375 0.00287954 -0.0162315)
(-0.00113449 0.020526 -0.0141381)
(6.60298e-06 0.0204174 -0.0143991)
(0.00153812 0.00797974 -0.0173051)
(-5.67629e-05 -0.000258174 -0.0137661)
(-0.00365843 -0.00369083 -0.0171097)
(-0.010773 -0.0149626 0.0102041)
(0.000702284 -0.0157775 0.00960268)
(0.0152931 -0.0103276 -0.0177551)
(0.00266367 0.00120052 -0.0159509)
(-0.00365962 -0.00360989 -0.017144)
(-0.0162984 -0.0163093 0.00879097)
(0.000438913 0.00156745 0.00889395)
(-0.000438801 0.00156762 0.00889382)
(0.0301313 -0.013798 0.00888001)
(0.0249144 -0.00565984 0.00951107)
(0.00288078 0.00272705 -0.0162016)
(-0.0149585 -0.0107763 0.0102035)
(0.00156839 0.000438725 0.00889382)
(-0.00155594 -0.00155666 0.00891298)
(0.00155662 -0.00155694 0.00891319)
(-0.00156729 0.000438077 0.00889374)
(0.0374342 -5.83926e-05 0.00887147)
(0.0205211 -0.00112882 -0.0141367)
(-0.000262865 -4.05446e-05 -0.0137553)
(-0.015783 0.000696803 0.00960367)
(0.00156915 -0.000438278 0.00889405)
(-0.00155653 0.00155647 0.00891303)
(0.00155654 0.00155628 0.008913)
(-0.00156911 -0.000439129 0.00889458)
(0.0366419 0.000700075 0.00883995)
(0.0204394 1.42269e-05 -0.0143975)
(-0.0103402 0.0152797 -0.0177574)
(-0.0137973 0.0301244 0.00888178)
(0.000438632 -0.00156681 0.00889349)
(-0.000438864 -0.00156719 0.00889367)
(0.0277709 0.0277711 0.00889552)
(0.0208631 0.00328473 0.009488)
(0.00797778 0.00153057 -0.0173086)
(0.00113367 0.0026687 -0.015902)
(-0.005675 0.0249212 0.00949083)
(-6.29667e-05 0.0374386 0.00887029)
(0.000695596 0.0366342 0.00884004)
(0.00328195 0.0208593 0.00948872)
(0.0105003 0.0105062 0.0100592)
(0.0027437 0.00289511 -0.0162285)
(-0.00113752 0.0205221 -0.0141394)
(-6.08164e-07 0.0204146 -0.0143996)
(0.00151053 0.00798358 -0.0173038)
(-5.69101e-05 -0.000258294 -0.0137639)
(-0.00362967 -0.0036676 -0.0170441)
(-0.0107722 -0.0149581 0.0102057)
(0.000706182 -0.0157772 0.00960229)
(0.0152992 -0.0103358 -0.0177495)
(0.00271883 0.00117716 -0.0162291)
(-0.00366598 -0.00367105 -0.0171992)
(-0.0163078 -0.0163033 0.008792)
(0.000438922 0.00156772 0.00889455)
(-0.000438603 0.00156862 0.0088941)
(0.030129 -0.0138002 0.00888074)
(0.0249048 -0.00567179 0.00950547)
(0.00289872 0.00274935 -0.0162259)
(-0.0149629 -0.0107792 0.0102024)
(0.00156755 0.000439008 0.00889377)
(-0.00155653 -0.00155638 0.00891354)