/*--------------------------------*- C++ -*----------------------------------*\
| =========                 |                                                 |
| \\      /  F ield         | OpenFOAM: The Open Source CFD Toolbox           |
|  \\    /   O peration     | Version:  v1906                                 |
|   \\  /    A nd           | Web:      www.OpenFOAM.com                      |
|    \\/     M anipulation  |                                                 |
\*---------------------------------------------------------------------------*/
FoamFile
{
    version     2.0;
    format      ascii;
    class       volScalarField;
    location    "0.3";
    object      p;
}
// * * * * * * * * * * * * * * * * * * * * * * * * * * * * * * * * * * * * * //

dimensions      [0 2 -2 0 0 0 0];


internalField   nonuniform List<scalar> 
118248
(
-1.52674e-08
0.000283937
0.000330927
0.000477863
0.000277521
0.000190489
0.000294006
0.000753481
0.000539191
0.000571471
0.000601532
0.000488875
0.000169484
0.00032614
0.000538263
0.000509686
0.000514153
0.000522468
0.000616622
0.000366883
4.87848e-05
0.000468806
0.000570155
0.000516369
0.000507654
0.000543968
0.000642906
0.000273859
0.000290874
0.000600223
0.000523547
0.00054453
0.000575949
0.000498024
0.000258139
0.000209169
0.00048484
0.000615632
0.000643797
0.000500714
0.00032452
0.000175206
0.000368169
0.000277587
0.00025784
0.00174972
0.00159582
0.00105872
0.00106522
0.00140384
0.0015202
0.00159445
0.00160896
0.00149194
0.00149197
0.000421544
0.000528341
0.00162222
0.00105625
0.00149177
0.00207956
0.00207936
0.00149164
-0.000637956
0.00146932
0.00174872
0.00106372
0.00149191
0.00207861
0.00207847
0.00149188
-0.00057735
0.00137814
0.00140611
0.000422468
0.00149199
0.00149189
-0.000910014
-4.42717e-05
0.00148895
0.00152303
0.000527739
-0.000637425
-0.000576327
-4.39213e-05
0.000681723
0.00162246
0.00147129
0.00138091
0.00148984
0.00317952
0.00298946
0.00216415
0.00215149
0.00266137
0.00288893
0.002994
0.00275338
0.00271321
0.00271317
0.001632
0.0017199
0.00300718
0.00216394
0.0027135
0.00326985
0.00326985
0.00271315
0.000683603
0.00274352
0.00317719
0.00215186
0.00271334
0.00326971
0.00326971
0.00271313
0.000710807
0.00263371
0.00266178
0.00163211
0.00271328
0.00271326
0.000504457
0.00117538
0.0028074
0.00289018
0.00171953
0.000683677
0.000711247
0.0011765
0.00191681
0.00300935
0.00274544
0.00263695
0.00280833
0.00427268
0.00407923
0.00326075
0.0032459
0.00374992
0.00397274
0.00408312
0.00386252
0.00382431
0.00382444
0.00273318
0.00281462
0.00409848
0.00326098
0.00382454
0.00437288
0.00437285
0.00382434
0.00178494
0.00383509
0.0042701
0.00324637
0.00382438
0.00437285
0.00437286
0.00382443
0.00182195
0.00372949
0.00374959
0.00273342
0.00382457
0.00382451
0.00160622
0.00227452
0.00389749
0.00397606
0.00281584
0.00178495
0.0018216
0.00227455
0.00299782
0.00409968
0.003836
0.00372847
0.0038967
0.00536501
0.00517323
0.00435511
0.00433987
0.004842
0.00506382
0.00517282
0.00495816
0.00491995
0.00491994
0.0038267
0.00390824
0.00519049
0.00435487
0.00491999
0.00546918
0.00546926
0.00491991
0.00287711
0.00492838
0.00536221
0.00434021
0.00491996
0.00546923
0.00546923
0.00492
0.00291602
0.00482271
0.00484171
0.00382638
0.0049199
0.00491999
0.00269623
0.00336629
0.00498853
0.00506684
0.00390659
0.00287704
0.00291614
0.0033664
0.00408894
0.00518963
0.00492795
0.00482363
0.00498894
0.00645912
0.00626762
0.00544925
0.00543422
0.00593596
0.00615971
0.00626632
0.00605246
0.0060144
0.00601422
0.00492113
0.00500277
0.00628414
0.00544944
0.00601431
0.00656387
0.00656386
0.00601459
0.00397143
0.00602235
0.00645651
0.00543479
0.00601443
0.00656381
0.00656382
0.00601419
0.00401095
0.00591708
0.00593599
0.00492059
0.00601423
0.00601443
0.00379014
0.00446071
0.00608337
0.00615995
0.00500012
0.00397049
0.00400976
0.00446
0.00518304
0.00628415
0.00602247
0.00591598
0.00608293
0.00755358
0.00736195
0.00654373
0.00652869
0.00702996
0.00725293
0.00736082
0.00714687
0.00710874
0.00710871
0.00601509
0.00609612
0.00737933
0.00654356
0.00710864
0.0076583
0.00765835
0.00710883
0.0050655
0.00711628
0.00755076
0.00652884
0.0071088
0.00765832
0.00765841
0.00710872
0.00510495
0.00700899
0.00703037
0.00601538
0.00710878
0.00710898
0.00488436
0.00555455
0.00717795
0.00725288
0.00609651
0.00506553
0.00510462
0.00555499
0.00627751
0.00737887
0.00711769
0.0070108
0.00717768
0.00864778
0.00845518
0.00763805
0.00762299
0.00812412
0.00834754
0.00845645
0.00824137
0.00820304
0.00820306
0.00710944
0.00719105
0.00847377
0.00763808
0.00820319
0.00875267
0.00875273
0.00820311
0.0061601
0.0082112
0.00864527
0.00762336
0.00820306
0.0087527
0.00875267
0.00820309
0.00619937
0.00810594
0.00812499
0.00710978
0.00820315
0.00820318
0.00597883
0.00664866
0.00827169
0.00834913
0.00718981
0.00615995
0.00619948
0.00664979
0.00737186
0.00847156
0.00821137
0.00810691
0.00827194
0.00974253
0.0095497
0.00873257
0.00871761
0.00921944
0.00944365
0.00955075
0.00933587
0.00929747
0.00929758
0.00820381
0.00828421
0.00956725
0.00873249
0.00929764
0.00984715
0.00984716
0.00929757
0.00725403
0.0093053
0.00973959
0.00871764
0.00929745
0.00984711
0.00984713
0.00929752
0.00729379
0.00920032
0.00921911
0.00820435
0.00929764
0.00929754
0.00707339
0.00774348
0.00936659
0.00944281
0.00828541
0.00725474
0.00729378
0.00774401
0.00846644
0.00956762
0.00930641
0.00919941
0.00936623
0.0108368
0.0106424
0.00982687
0.00981184
0.0103138
0.0105366
0.010647
0.0104302
0.0103919
0.010392
0.00929866
0.00937935
0.0106618
0.00982702
0.0103921
0.0109416
0.0109415
0.010392
0.00834905
0.0103997
0.0108343
0.00981235
0.0103919
0.0109415
0.0109416
0.0103919
0.00838826
0.0102923
0.010314
0.00929864
0.010392
0.0103919
0.00816762
0.00883818
0.0104613
0.0105401
0.00937966
0.00834872
0.00838782
0.00883793
0.00956105
0.0106622
0.0104005
0.0102939
0.0104605
0.0119313
0.0117397
0.0109213
0.0109063
0.0114081
0.0116313
0.0117385
0.0115247
0.0114864
0.0114863
0.0103931
0.0104736
0.0117563
0.0109215
0.0114864
0.012036
0.012036
0.0114864
0.0094433
0.0114945
0.0119286
0.0109067
0.0114864
0.012036
0.012036
0.0114864
0.00948324
0.0113924
0.0114082
0.0103928
0.0114864
0.0114865
0.00926214
0.00993289
0.0115558
0.0116328
0.0104738
0.00944311
0.00948222
0.00993225
0.0106552
0.0117562
0.0114949
0.0113883
0.0115552
0.0130258
0.0128345
0.0120156
0.0120007
0.0125029
0.0127246
0.0128327
0.012619
0.0125809
0.0125809
0.0114875
0.0115688
0.0128512
0.0120159
0.0125809
0.0131305
0.0131305
0.012581
0.0105378
0.0125893
0.0130232
0.0120013
0.0125809
0.0131305
0.0131305
0.0125808
0.0105775
0.012484
0.0125029
0.0114875
0.0125809
0.012581
0.0103567
0.011027
0.0126504
0.0127299
0.0115676
0.0105375
0.0105768
0.011027
0.0117497
0.0128509
0.0125897
0.012483
0.0126499
0.0141203
0.0139274
0.0131103
0.0130952
0.0135972
0.0138196
0.0139288
0.0137136
0.0136753
0.0136752
0.012582
0.0126634
0.0139454
0.0131104
0.0136754
0.0142249
0.014225
0.0136755
0.0116322
0.0136838
0.0141178
0.0130958
0.0136753
0.0142248
0.0142248
0.0136751
0.011672
0.013577
0.0135975
0.0125818
0.0136753
0.0136755
0.0114511
0.0121214
0.0137446
0.0138231
0.0126622
0.0116318
0.0116719
0.0121218
0.0128441
0.0139453
0.0136836
0.0135824
0.0137447
0.0152143
0.0150237
0.0142044
0.0141894
0.0146906
0.0149137
0.0150202
0.0148077
0.0147695
0.0147695
0.013676
0.0137569
0.0150404
0.0142044
0.0147696
0.0153192
0.0153192
0.0147697
0.012726
0.0147781
0.0152117
0.0141897
0.0147696
0.0153192
0.0153192
0.0147695
0.0127651
0.014668
0.0146913
0.0136765
0.0147697
0.0147697
0.0125452
0.0132154
0.0148376
0.0149155
0.0137573
0.0127265
0.0127656
0.0132158
0.0139383
0.0150394
0.0147785
0.0146715
0.0148385
0.0163088
0.0161164
0.0152991
0.0152838
0.0157851
0.0160082
0.0161168
0.0159023
0.0158639
0.0158639
0.0147703
0.0148508
0.0161346
0.0152987
0.015864
0.0164135
0.0164135
0.0158638
0.0138205
0.0158723
0.0163061
0.0152841
0.0158638
0.0164135
0.0164135
0.015864
0.0138598
0.0157667
0.015786
0.0147707
0.015864
0.0158639
0.0136396
0.0143097
0.0159323
0.0160098
0.0148514
0.0138206
0.01386
0.0143104
0.0150327
0.0161324
0.0158722
0.0157658
0.0159329
0.0174034
0.0172087
0.0163933
0.0163782
0.0168808
0.0171035
0.0172131
0.0169967
0.0169583
0.0169583
0.0158649
0.0159462
0.0172269
0.016393
0.0169583
0.0175078
0.0175079
0.0169582
0.0149152
0.0169663
0.0174005
0.0163785
0.0169582
0.0175079
0.0175079
0.0169584
0.0149552
0.0168645
0.0168798
0.0158651
0.0169584
0.0169584
0.0147341
0.0154044
0.0170283
0.0171062
0.0159466
0.0149152
0.0149545
0.0154048
0.0161273
0.0172294
0.0169675
0.0168606
0.0170271
0.0184976
0.0183033
0.0174873
0.0174725
0.0179748
0.0181996
0.0183068
0.0180908
0.0180526
0.0180525
0.0169593
0.0170393
0.0183209
0.0174875
0.0180525
0.0186022
0.0186021
0.0180526
0.0160095
0.0180604
0.0184949
0.0174729
0.0180526
0.0186022
0.0186021
0.0180525
0.0160493
0.0179556
0.0179745
0.0169589
0.0180525
0.0180526
0.0158283
0.0164988
0.0181222
0.0181987
0.017039
0.0160087
0.0160484
0.0164988
0.0172217
0.0183224
0.0180612
0.0179546
0.0181213
0.0195919
0.0193997
0.0185814
0.0185667
0.0190686
0.0192934
0.0193995
0.0191853
0.0191469
0.0191468
0.0180536
0.0181335
0.0194181
0.0185822
0.0191469
0.0196965
0.0196965
0.019147
0.0171036
0.0191554
0.0195893
0.0185671
0.0191468
0.0196965
0.0196965
0.0191468
0.0171435
0.0190501
0.0190688
0.0180538
0.019147
0.019147
0.0169227
0.0175933
0.0192158
0.0192915
0.0181355
0.0171038
0.0171432
0.0175931
0.0183159
0.0194172
0.0191564
0.0190494
0.0192166
0.020686
0.0204953
0.019676
0.019661
0.0201626
0.0203851
0.020492
0.0202794
0.0202411
0.0202412
0.0191477
0.0192288
0.0205123
0.0196761
0.0202413
0.0207909
0.0207908
0.0202413
0.0181978
0.0202494
0.0206836
0.0196616
0.0202412
0.0207908
0.0207908
0.0202412
0.0182368
0.0201384
0.0201634
0.019148
0.0202413
0.0202412
0.0180169
0.0186869
0.0203094
0.0203899
0.0192273
0.0181976
0.0182374
0.0186878
0.0194101
0.0205113
0.0202502
0.0201433
0.0203102
0.0217807
0.0215894
0.0207704
0.0207555
0.0212577
0.0214817
0.0215865
0.0213737
0.0213355
0.0213355
0.0202419
0.020322
0.0216053
0.0207702
0.0213355
0.0218851
0.0218851
0.0213355
0.0192919
0.0213436
0.0217778
0.0207557
0.0213354
0.0218851
0.0218851
0.0213355
0.0193321
0.0212388
0.0212574
0.0202424
0.0213356
0.0213355
0.0191111
0.0197815
0.0214054
0.0214806
0.0203226
0.0192921
0.0193316
0.0197819
0.0205044
0.0216057
0.0213446
0.0212377
0.0214042
0.0228748
0.0226832
0.0218645
0.0218495
0.0223517
0.0225758
0.0226809
0.0224678
0.0224297
0.0224297
0.0213367
0.0214173
0.0226996
0.0218643
0.0224299
0.0229795
0.0229795
0.0224299
0.0203867
0.0224386
0.0228718
0.0218498
0.0224297
0.0229794
0.0229793
0.0224297
0.0204265
0.0223308
0.022351
0.0213362
0.0224298
0.0224298
0.0202056
0.020876
0.0224988
0.0225733
0.0214168
0.020386
0.0204258
0.0208762
0.0215989
0.0227009
0.0224388
0.022332
0.0224987
0.0239693
0.023775
0.0229589
0.0229441
0.0234463
0.0236699
0.0237786
0.0235625
0.0235241
0.0235242
0.0224305
0.0225096
0.023794
0.0229591
0.0235242
0.0240738
0.0240738
0.023524
0.0214805
0.0235324
0.0239667
0.0229445
0.0235241
0.0240737
0.0240736
0.0235241
0.0215209
0.0234257
0.0234459
0.022431
0.0235242
0.0235241
0.0212998
0.0219707
0.0235936
0.0236717
0.0225115
0.0214804
0.02152
0.0219702
0.0226932
0.0237952
0.0235334
0.0234264
0.023593
0.0250639
0.0248712
0.0240535
0.0240384
0.0245409
0.0247627
0.0248714
0.0246568
0.0246185
0.0246185
0.0235253
0.0236055
0.0248888
0.0240531
0.0246185
0.0251681
0.0251681
0.0246185
0.0225753
0.0246273
0.0250609
0.0240385
0.0246184
0.0251681
0.0251681
0.0246186
0.0226154
0.024522
0.0245406
0.0235254
0.0246186
0.0246186
0.0223942
0.0230649
0.0246881
0.0247631
0.0236069
0.0225752
0.0226147
0.0230648
0.0237877
0.0248887
0.0246281
0.0245211
0.0246879
0.0261581
0.025965
0.0251476
0.0251327
0.025635
0.025858
0.0259663
0.025751
0.0257128
0.0257127
0.0246199
0.0246999
0.025983
0.0251475
0.0257129
0.0262625
0.0262623
0.0257129
0.0236696
0.025721
0.0261554
0.0251331
0.0257127
0.0262624
0.0262624
0.0257126
0.0237093
0.025613
0.0256351
0.0246196
0.0257128
0.0257128
0.0234884
0.024159
0.0257819
0.0258614
0.0246996
0.0236688
0.0237088
0.0241591
0.0248818
0.0259831
0.0257219
0.0256153
0.0257821
0.0272523
0.0270608
0.0262419
0.0262271
0.0267292
0.0269542
0.0270589
0.0268453
0.0268072
0.026807
0.025714
0.0257946
0.0270784
0.0262419
0.0268071
0.0273568
0.0273568
0.0268072
0.0247637
0.0268163
0.0272495
0.0262273
0.0268071
0.0273568
0.0273566
0.026807
0.0248034
0.0267093
0.0267291
0.0257142
0.0268072
0.0268072
0.0245829
0.0252536
0.0268763
0.0269531
0.0257945
0.0247638
0.0248034
0.0252535
0.0259761
0.0270771
0.0268165
0.0267097
0.0268763
0.0283467
0.0281559
0.027336
0.0273213
0.0278235
0.028049
0.028152
0.0279395
0.0279015
0.0279013
0.0268082
0.0268886
0.0281723
0.0273362
0.0279014
0.028451
0.0284511
0.0279014
0.0258577
0.0279103
0.0283439
0.0273215
0.0279015
0.0284511
0.028451
0.0279014
0.0258982
0.0278079
0.0278239
0.0268082
0.0279014
0.0279016
0.0256771
0.0263479
0.0279709
0.0280466
0.0268881
0.0258579
0.0258978
0.0263477
0.0270704
0.0281705
0.0279105
0.0278039
0.027971
0.0294409
0.02925
0.0284302
0.0284153
0.0289181
0.0291404
0.0292464
0.029034
0.0289957
0.0289956
0.0279026
0.0279838
0.0292659
0.0284305
0.0289958
0.0295453
0.0295455
0.0289958
0.0269525
0.0290052
0.0294382
0.0284158
0.0289956
0.0295454
0.0295452
0.0289958
0.026993
0.0289006
0.0289181
0.0279026
0.0289957
0.0289958
0.0267716
0.0274424
0.0290652
0.0291422
0.0279825
0.0269524
0.0269924
0.0274424
0.0281651
0.0292644
0.0290048
0.0288984
0.0290655
0.0305352
0.0303406
0.0295246
0.0295099
0.0300124
0.0302363
0.0303445
0.0301283
0.03009
0.03009
0.0289966
0.0290763
0.03036
0.0295247
0.0300901
0.0306397
0.0306397
0.03009
0.0280463
0.0300987
0.0305328
0.0295103
0.03009
0.0306397
0.0306397
0.0300901
0.0280871
0.0299936
0.0300126
0.0289968
0.03009
0.03009
0.0278658
0.0285367
0.0301601
0.0302383
0.0290761
0.0280462
0.0280863
0.0285362
0.0292592
0.0303602
0.0300994
0.0299927
0.0301592
0.0316297
0.031439
0.0306187
0.030604
0.0311066
0.0313302
0.0314349
0.0312224
0.0311843
0.0311842
0.0300913
0.030171
0.0314543
0.030619
0.0311843
0.0317339
0.0317339
0.0311843
0.0291408
0.0311933
0.031627
0.0306044
0.0311844
0.031734
0.0317339
0.0311842
0.0291813
0.0310881
0.0311067
0.0300909
0.0311843
0.0311844
0.02896
0.0296306
0.0312543
0.0313304
0.0301701
0.0291404
0.0291807
0.0296309
0.0303532
0.0314543
0.0311936
0.0310871
0.0312538
0.032724
0.0325313
0.0317132
0.0316983
0.0322011
0.0324227
0.0325316
0.0323169
0.0322786
0.0322786
0.0311856
0.0312666
0.032549
0.0317132
0.0322787
0.0328283
0.0328283
0.0322787
0.0302354
0.0322878
0.0327214
0.0316989
0.0322787
0.0328282
0.0328283
0.0322785
0.0302757
0.0321824
0.0322013
0.0311855
0.0322786
0.0322786
0.0300543
0.0307251
0.032348
0.0324269
0.0312646
0.0302348
0.0302749
0.0307249
0.0314473
0.0325489
0.032288
0.0321813
0.0323481
0.0338185
0.0336257
0.0328076
0.0327927
0.033296
0.0335188
0.0336259
0.0334112
0.0333729
0.0333729
0.0322797
0.0323596
0.0336419
0.0328073
0.0333729
0.0339225
0.0339226
0.0333729
0.0313292
0.033382
0.0338156
0.0327928
0.0333729
0.0339226
0.0339226
0.0333729
0.0313701
0.0332778
0.0332957
0.0322797
0.0333729
0.033373
0.0311486
0.0318195
0.0334429
0.0335182
0.0323593
0.0313291
0.0313692
0.0318194
0.0325418
0.0336421
0.0333824
0.0332758
0.0334426
0.0349128
0.03472
0.0339019
0.033887
0.0343899
0.0346117
0.0347202
0.0345055
0.0344673
0.0344672
0.0333742
0.0334545
0.0347376
0.0339017
0.0344673
0.0350169
0.035017
0.0344673
0.0324233
0.0344769
0.0349101
0.0338873
0.0344673
0.0350169
0.0350169
0.0344673
0.0324641
0.0343711
0.03439
0.0333741
0.0344673
0.0344674
0.032243
0.0329137
0.0345371
0.0346156
0.0334532
0.0324234
0.0324637
0.0329138
0.0336361
0.0347376
0.034477
0.0343704
0.034537
0.0360071
0.0358143
0.0349962
0.0349813
0.0354842
0.035706
0.0358145
0.0355998
0.0355616
0.0355615
0.0344686
0.0345489
0.035832
0.034996
0.0355616
0.0361113
0.0361114
0.0355616
0.0335179
0.0355714
0.0360044
0.0349817
0.0355616
0.0361113
0.0361111
0.0355616
0.033559
0.0354666
0.0354844
0.0344685
0.0355616
0.0355617
0.0333375
0.0340083
0.0356315
0.0357099
0.0345475
0.0335178
0.0335583
0.0340085
0.034731
0.0358319
0.0355713
0.0354648
0.0356315
0.0371015
0.0369087
0.0360905
0.0360756
0.0365786
0.0368004
0.0369089
0.0366942
0.0366559
0.0366558
0.0355629
0.0356432
0.0369264
0.0360903
0.0366559
0.0372056
0.0372057
0.036656
0.0346121
0.0366659
0.0370988
0.036076
0.0366559
0.0372056
0.0372055
0.0366559
0.0346531
0.0365611
0.0365788
0.0355628
0.0366558
0.036656
0.0344316
0.0351029
0.0367256
0.0368043
0.0356417
0.0346121
0.0346525
0.0351022
0.0358251
0.0369262
0.0366656
0.036559
0.036726
0.0381958
0.0380024
0.0371846
0.0371697
0.0376729
0.0378946
0.0380036
0.0377883
0.0377501
0.03775
0.0366571
0.0367372
0.0380205
0.0371845
0.0377501
0.0382997
0.0382998
0.0377501
0.0357061
0.0377599
0.0381931
0.0371702
0.0377501
0.0382998
0.0382997
0.0377502
0.0357475
0.0376573
0.0376731
0.036657
0.0377501
0.0377502
0.0355258
0.0361968
0.0378207
0.0378985
0.0367358
0.035706
0.0357466
0.0361967
0.036919
0.0380205
0.03776
0.0376534
0.03782
0.03929
0.0390969
0.038279
0.0382641
0.0387672
0.0389889
0.0390976
0.0388826
0.0388444
0.0388443
0.0377515
0.0378317
0.0391148
0.0382787
0.0388445
0.0393941
0.0393941
0.0388445
0.0368007
0.038854
0.0392873
0.0382645
0.0388444
0.0393941
0.039394
0.0388443
0.0368417
0.0387487
0.0387672
0.0377513
0.0388444
0.0388444
0.0366201
0.037291
0.0389147
0.0389927
0.03783
0.0368003
0.0368411
0.037291
0.0380133
0.0391147
0.0388542
0.0387476
0.0389142
0.0403841
0.0401895
0.0393729
0.0393582
0.0398612
0.0400845
0.0401932
0.0399768
0.0399385
0.0399384
0.0388458
0.0389249
0.0402088
0.0393731
0.0399386
0.0404883
0.0404882
0.0399386
0.0378948
0.0399482
0.0403818
0.0393588
0.0399386
0.0404881
0.0404882
0.0399383
0.0379356
0.0398407
0.0398615
0.0388454
0.0399385
0.0399385
0.0377141
0.0383851
0.0400082
0.0400846
0.0389234
0.037894
0.0379347
0.0383849
0.0391073
0.0402088
0.0399479
0.0398383
0.040008
0.0414785
0.0412855
0.0404671
0.0404523
0.0409557
0.0411772
0.0412858
0.041071
0.0410327
0.0410328
0.0399399
0.0400193
0.0413033
0.0404669
0.0410328
0.0415824
0.0415825
0.0410327
0.038989
0.0410433
0.0414757
0.0404526
0.0410326
0.0415824
0.0415823
0.0410328
0.03903
0.0409361
0.0409554
0.03994
0.0410328
0.0410327
0.0388085
0.0394798
0.0411029
0.0411783
0.0400195
0.0389887
0.0390294
0.0394795
0.040202
0.0413033
0.0410431
0.0409363
0.0411029
0.0425727
0.0423804
0.041561
0.0415464
0.0420503
0.0422723
0.0423792
0.042165
0.0421269
0.0421269
0.041034
0.0411138
0.042396
0.0415614
0.0421269
0.0426766
0.0426766
0.0421269
0.0400832
0.0421364
0.0425702
0.0415472
0.042127
0.0426766
0.0426766
0.0421269
0.0401245
0.0420315
0.0420502
0.0410341
0.042127
0.0421269
0.0399026
0.0405736
0.0421975
0.042275
0.0411129
0.0400825
0.0401234
0.0405737
0.0412959
0.0423976
0.0421369
0.0420303
0.0421969
0.0436668
0.0434738
0.0426554
0.0426406
0.0431445
0.0433673
0.0434742
0.0432593
0.043221
0.043221
0.0421282
0.042208
0.04349
0.0426553
0.043221
0.0437707
0.0437707
0.0432211
0.0411772
0.0432302
0.0436641
0.042641
0.0432209
0.0437707
0.0437707
0.0432209
0.0412184
0.0431222
0.0431439
0.0421284
0.0432211
0.0432211
0.0409967
0.0416681
0.0432908
0.0433672
0.0422074
0.0411769
0.0412176
0.0416675
0.0423901
0.0434913
0.0432313
0.0431245
0.043291
0.0447611
0.0445687
0.0437493
0.0437349
0.0442385
0.0444641
0.0445673
0.0443532
0.0443152
0.0443151
0.0432224
0.0433012
0.0445857
0.0437494
0.0443151
0.0448649
0.0448648
0.0443152
0.042271
0.0443248
0.0447582
0.0437351
0.0443151
0.0448649
0.0448648
0.044315
0.0423126
0.0442197
0.0442378
0.0432224
0.0443152
0.0443152
0.0420908
0.0427617
0.0443858
0.0444622
0.0433013
0.0422712
0.0423123
0.0427625
0.0434843
0.044587
0.044326
0.0442192
0.0443856
0.0458554
0.0456622
0.0448436
0.044829
0.0453325
0.0455555
0.0456625
0.0454476
0.0454093
0.0454093
0.0443168
0.0443952
0.0456796
0.0448434
0.0454093
0.045959
0.0459589
0.0454094
0.043365
0.045419
0.0458526
0.0448293
0.0454093
0.0459589
0.0459589
0.0454091
0.0434061
0.0453082
0.0453326
0.0443164
0.0454092
0.0454092
0.0431847
0.043856
0.0454796
0.0455576
0.0443944
0.0433646
0.0434059
0.0438557
0.044578
0.0456797
0.0454196
0.0453129
0.045479
0.0469496
0.0467562
0.0459379
0.0459231
0.0464269
0.0466475
0.0467565
0.0465417
0.0465034
0.0465034
0.0454107
0.04549
0.0467742
0.0459373
0.0465034
0.0470531
0.0470531
0.0465034
0.0444591
0.0465132
0.0469466
0.0459231
0.0465034
0.0470531
0.0470531
0.0465033
0.0445007
0.046405
0.0464269
0.0454105
0.0465033
0.0465035
0.044279
0.0449502
0.0465737
0.0466489
0.045489
0.0444589
0.0445002
0.0449502
0.0456723
0.0467728
0.0465137
0.0464072
0.0465737
0.0480433
0.0478482
0.0470315
0.0470169
0.0475207
0.0477425
0.0478526
0.0476357
0.0475974
0.0475974
0.0465049
0.0465849
0.0478682
0.0470318
0.0475976
0.0481473
0.0481473
0.0475977
0.0455538
0.0476081
0.0480411
0.0470177
0.0475976
0.0481472
0.0481473
0.0475975
0.0455954
0.0475027
0.0475211
0.0465048
0.0475975
0.0475976
0.0453732
0.0460445
0.0476686
0.0477457
0.0465823
0.0455527
0.0455943
0.0460445
0.0467666
0.0478682
0.0476081
0.0475015
0.047668
0.0491377
0.0489443
0.048126
0.0481113
0.0486149
0.0488383
0.0489447
0.0487299
0.0486915
0.0486916
0.0475987
0.0476775
0.048962
0.0481255
0.0486916
0.0492413
0.0492414
0.0486916
0.0466474
0.0487016
0.0491349
0.0481114
0.0486914
0.0492412
0.0492412
0.0486914
0.0466896
0.048595
0.0486147
0.0475991
0.0486916
0.0486916
0.0464673
0.0471391
0.0487621
0.0488371
0.0476775
0.0466471
0.0466884
0.0471383
0.0478607
0.0489622
0.0487023
0.0485956
0.048762
0.0502317
0.0500363
0.0492195
0.0492051
0.0497095
0.0499317
0.0500408
0.0498237
0.0497855
0.0497855
0.0486928
0.0487713
0.0500548
0.0492197
0.0497857
0.0503353
0.0503353
0.0497855
0.047741
0.0497956
0.050229
0.0492055
0.0497856
0.0503353
0.0503353
0.0497855
0.0477832
0.0496906
0.0497086
0.048693
0.0497856
0.0497858
0.0475613
0.0482324
0.0498566
0.0499328
0.0487714
0.0477412
0.0477828
0.0482329
0.0489547
0.0500576
0.0497968
0.0496899
0.0498563
0.0513257
0.0511328
0.0503137
0.0502991
0.0508031
0.0510243
0.0511325
0.0509178
0.0508795
0.0508795
0.049787
0.0498661
0.0511502
0.0503135
0.0508796
0.0514293
0.0514293
0.0508797
0.0488351
0.05089
0.0513231
0.0502996
0.0508796
0.0514292
0.0514294
0.0508794
0.048877
0.0507846
0.0508033
0.0497871
0.0508797
0.0508796
0.0486553
0.0493262
0.0509499
0.0510282
0.0498659
0.0488355
0.0488769
0.0493271
0.0500488
0.0511506
0.05089
0.0507824
0.0509503
0.0524196
0.0522271
0.0514073
0.051393
0.0518969
0.0521194
0.0522258
0.0520115
0.0519735
0.0519734
0.0508812
0.0509605
0.0522442
0.0514075
0.0519734
0.0525233
0.0525233
0.0519737
0.0499293
0.0519841
0.0524169
0.0513934
0.0519736
0.0525233
0.0525233
0.0519736
0.0499709
0.0518763
0.0518969
0.0508806
0.0519735
0.0519736
0.0497494
0.0504212
0.0520444
0.0521207
0.0509584
0.0499288
0.0499708
0.0504203
0.0511427
0.0522438
0.0519841
0.0518776
0.0520437
0.0535135
0.0533203
0.0525015
0.052487
0.0529904
0.0532125
0.0533207
0.0531057
0.0530675
0.0530676
0.0519749
0.052054
0.053339
0.0525014
0.0530676
0.0536174
0.0536173
0.0530677
0.0510235
0.053078
0.0535111
0.0524875
0.0530676
0.0536173
0.0536173
0.0530675
0.0510655
0.0529729
0.0529912
0.0519751
0.0530677
0.0530676
0.0508434
0.0515148
0.0531389
0.0532161
0.0520538
0.0510231
0.0510646
0.0515146
0.0522367
0.0533385
0.0530782
0.0529684
0.0531378
0.0546079
0.0544145
0.0535957
0.0535812
0.0540854
0.0543087
0.0544148
0.0541999
0.0541617
0.0541615
0.053069
0.0531474
0.0544304
0.0535956
0.0541617
0.0547114
0.0547115
0.0541615
0.052117
0.0541717
0.0546052
0.0535817
0.0541616
0.0547114
0.0547112
0.0541616
0.0521594
0.0540676
0.0540854
0.0530691
0.0541617
0.0541617
0.0519375
0.0526086
0.0542325
0.0543108
0.0531473
0.052117
0.052159
0.0526092
0.0533309
0.0544325
0.0541726
0.054066
0.0542325
0.0557019
0.0555085
0.0546897
0.0546751
0.0551793
0.0554005
0.0555088
0.0552938
0.0552557
0.0552556
0.0541631
0.0542421
0.0555264
0.0546895
0.0552556
0.0558054
0.0558053
0.0552557
0.0532112
0.0552663
0.055699
0.0546755
0.0552556
0.0558053
0.0558054
0.0552556
0.0532532
0.055161
0.0551787
0.0541632
0.0552558
0.0552557
0.0530314
0.0537025
0.055327
0.0554035
0.0542415
0.0532114
0.0532529
0.0537031
0.0544249
0.0555274
0.0552666
0.0551586
0.0553261
0.0567959
0.0566025
0.055784
0.0557693
0.0562731
0.0564961
0.0566029
0.056388
0.0563497
0.0563496
0.0552574
0.0553359
0.0566202
0.0557834
0.0563497
0.0568994
0.0568994
0.0563497
0.0543054
0.0563603
0.0567931
0.0557695
0.0563496
0.0568994
0.0568994
0.0563496
0.0543468
0.0562524
0.0562733
0.0552569
0.0563496
0.0563496
0.0541254
0.0547969
0.0564204
0.0564982
0.0553346
0.054305
0.054347
0.0547967
0.0555187
0.0566203
0.0563605
0.056254
0.0564199
0.0578899
0.0576944
0.0568775
0.0568632
0.0573677
0.0575891
0.0576989
0.0574818
0.0574435
0.0574436
0.056351
0.0564287
0.0577132
0.0568777
0.0574437
0.0579933
0.0579933
0.0574436
0.0553993
0.0574537
0.0578873
0.0568637
0.0574436
0.0579933
0.0579934
0.0574436
0.0554416
0.057349
0.0573674
0.056351
0.0574436
0.0574435
0.0552193
0.055891
0.0575151
0.0575918
0.056429
0.0553986
0.0554406
0.0558905
0.056613
0.0577144
0.0574544
0.0573477
0.0575139
0.0589839
0.0587903
0.0579716
0.0579572
0.0584607
0.0586817
0.058791
0.0585757
0.0585376
0.0585376
0.0574449
0.0575231
0.0588094
0.0579712
0.0585377
0.0590873
0.0590874
0.0585376
0.0564927
0.0585483
0.0589808
0.0579572
0.0585375
0.0590873
0.0590873
0.0585377
0.0565348
0.0584405
0.0584602
0.0574447
0.0585376
0.0585377
0.0563134
0.0569848
0.0586087
0.0586824
0.0575228
0.0564927
0.0565348
0.0569848
0.0577067
0.058809
0.0585488
0.058442
0.0586084
0.0600778
0.0598827
0.0590654
0.059051
0.0595553
0.0597765
0.0598863
0.0596698
0.0596316
0.0596316
0.0585392
0.058618
0.0599024
0.0590656
0.0596317
0.0601814
0.0601814
0.0596317
0.0575872
0.0596424
0.0600753
0.0590517
0.0596317
0.0601814
0.0601814
0.0596316
0.0576295
0.0595371
0.0595554
0.0585391
0.0596317
0.0596318
0.0574075
0.0580788
0.0597029
0.0597802
0.0586165
0.0575869
0.0576292
0.058079
0.0588007
0.0599025
0.0596428
0.0595381
0.0597024
0.061172
0.0609785
0.0601599
0.0601453
0.0606492
0.0608715
0.0609789
0.0607639
0.0607258
0.0607256
0.0596334
0.0597122
0.0609962
0.0601594
0.0607256
0.0612754
0.0612755
0.0607257
0.0586812
0.0607363
0.0611692
0.0601454
0.0607257
0.0612754
0.0612754
0.0607256
0.0587237
0.060634
0.0606496
0.059633
0.0607256
0.0607258
0.0585015
0.0591729
0.0607968
0.0608713
0.0597111
0.0586812
0.0587232
0.0591732
0.0598951
0.0609953
0.0607367
0.0606301
0.0607965
0.062266
0.0620746
0.0612533
0.061239
0.0617435
0.0619646
0.0620705
0.0618578
0.0618197
0.0618195
0.0607272
0.060806
0.0620905
0.0612537
0.0618196
0.0623694
0.0623694
0.0618199
0.0597752
0.0618309
0.0622634
0.0612397
0.0618196
0.0623693
0.0623693
0.0618195
0.0598179
0.0617262
0.0617436
0.0607271
0.0618195
0.0618197
0.0595953
0.0602674
0.0618909
0.0619679
0.0608039
0.0597745
0.0598167
0.0602665
0.0609889
0.0620905
0.0618307
0.0617239
0.0618898
0.0633596
0.0631675
0.0623473
0.062333
0.0628368
0.0630618
0.0631647
0.0629515
0.0629135
0.0629134
0.0618212
0.0619001
0.0631851
0.0623472
0.0629135
0.0634631
0.0634632
0.0629135
0.0608691
0.0629248
0.0633561
0.0623324
0.0629133
0.0634633
0.0634631
0.0629134
0.0609114
0.0628201
0.0628369
0.061821
0.0629135
0.0629134
0.0606892
0.0613608
0.0629841
0.0630591
0.0618992
0.0608688
0.0609109
0.0613606
0.0620825
0.0631842
0.0629248
0.0628179
0.0629843
0.0644538
0.0642612
0.0634413
0.0634269
0.0639316
0.0641537
0.0642589
0.0640453
0.0640073
0.0640074
0.0629148
0.0629921
0.0642769
0.063441
0.0640073
0.064557
0.0645572
0.0640072
0.0619625
0.0640181
0.0644517
0.063427
0.0640073
0.0645571
0.0645571
0.0640074
0.0620052
0.0639127
0.0639309
0.0629146
0.0640073
0.0640074
0.0617832
0.0624547
0.0640783
0.0641533
0.0629928
0.0619624
0.0620047
0.0624547
0.0631768
0.064278
0.0640184
0.0639119
0.0640784
0.0655477
0.0653565
0.064535
0.0645206
0.0650252
0.0652459
0.065352
0.0651396
0.0651013
0.0651013
0.0640091
0.0640882
0.0653724
0.0645353
0.0651014
0.0656511
0.0656511
0.0651015
0.0630572
0.0651124
0.065545
0.0645213
0.0651013
0.0656511
0.0656512
0.0651013
0.0630996
0.0650071
0.0650252
0.0640089
0.0651014
0.0651014
0.062877
0.063549
0.0651727
0.0652505
0.0640858
0.0630563
0.0630986
0.0635485
0.0642706
0.0653721
0.0651126
0.0650059
0.0651722
0.0666415
0.0664462
0.0656289
0.0656147
0.0661191
0.0663419
0.0664501
0.0662334
0.0661952
0.0661953
0.0651025
0.0651799
0.0664659
0.065629
0.0661954
0.066745
0.0667452
0.0661953
0.0641501
0.0662064
0.066639
0.0656151
0.0661953
0.066745
0.0667449
0.0661952
0.0641932
0.0661017
0.0661187
0.0651029
0.0661953
0.0661954
0.0639712
0.064643
0.0662662
0.0663425
0.0651806
0.0641505
0.0641927
0.0646424
0.0653645
0.0664674
0.066207
0.0661001
0.0662662
0.0677357
0.0675416
0.0667232
0.0667088
0.0672131
0.0674345
0.067543
0.0673274
0.0672892
0.0672892
0.0661968
0.0662746
0.0675598
0.066723
0.0672893
0.067839
0.067839
0.0672892
0.0652445
0.0673004
0.067733
0.0667092
0.0672892
0.067839
0.0678389
0.0672893
0.0652876
0.0671978
0.0672132
0.0661968
0.0672893
0.0672893
0.0650653
0.0657367
0.0673608
0.0674379
0.0662751
0.0652447
0.0652871
0.065737
0.066459
0.0675603
0.0673007
0.0671941
0.0673605
0.0688296
0.0686386
0.0678168
0.0678025
0.068307
0.0685277
0.0686338
0.0684212
0.0683831
0.0683831
0.0672907
0.0673684
0.068654
0.067817
0.0683831
0.0689329
0.0689329
0.0683831
0.0663383
0.0683941
0.0688268
0.067803
0.0683832
0.0689329
0.0689329
0.068383
0.0663811
0.0682873
0.0683069
0.0672905
0.0683832
0.0683831
0.0661589
0.0668305
0.0684538
0.0685304
0.0673675
0.0663381
0.0663804
0.0668304
0.0675522
0.0686536
0.068394
0.0682842
0.0684536
0.0699235
0.0697306
0.0689108
0.0688964
0.0694009
0.0696223
0.0697294
0.069515
0.069477
0.0694769
0.0683848
0.0684634
0.069748
0.0689107
0.0694769
0.0700267
0.0700268
0.0694771
0.0674325
0.0694879
0.0699206
0.0688966
0.069477
0.0700267
0.0700268
0.0694768
0.0674751
0.0693827
0.0694011
0.0683845
0.069477
0.0694772
0.0672527
0.0679244
0.0695482
0.0696227
0.0684621
0.0674321
0.0674745
0.0679243
0.0686463
0.0697468
0.0694883
0.0693818
0.069548
0.0710171
0.0708217
0.0700045
0.0699902
0.0704946
0.0707174
0.0708262
0.0706091
0.0705709
0.0705708
0.0694786
0.0695567
0.0708415
0.0700048
0.070571