/*--------------------------------*- C++ -*----------------------------------*\
| =========                 |                                                 |
| \\      /  F ield         | OpenFOAM: The Open Source CFD Toolbox           |
|  \\    /   O peration     | Version:  v1906                                 |
|   \\  /    A nd           | Web:      www.OpenFOAM.com                      |
|    \\/     M anipulation  |                                                 |
\*---------------------------------------------------------------------------*/
FoamFile
{
    version     2.0;
    format      ascii;
    class       volVectorField;
    location    "0.3";
    object      U;
}
// * * * * * * * * * * * * * * * * * * * * * * * * * * * * * * * * * * * * * //

dimensions      [0 1 -1 0 0 0 0];


internalField   nonuniform List<vector> 
118248
(
(0.00759288 -0.00413454 0.0361374)
(0.000166212 -0.00146812 0.0408111)
(3.73903e-05 0.00278256 0.00792452)
(0.000599972 0.00177735 0.00777855)
(0.00527309 -0.00459197 0.0407806)
(0.000251199 -0.00137619 0.0403779)
(-0.0014241 0.000126239 0.0407299)
(0.00242078 0.00247654 0.0105308)
(0.00127737 0.00266764 0.0122137)
(-5.36411e-05 0.00246753 0.0125545)
(-0.00139989 0.00319825 0.0113868)
(-0.00184383 0.00164951 0.00930828)
(0.00408231 -0.000862778 0.0429353)
(0.00265242 0.000333996 0.0083291)
(0.00257512 0.0012913 0.0122118)
(0.00140005 0.00144064 0.0140567)
(-0.000464616 0.00146771 0.0143567)
(-0.00228441 0.00251592 0.0132667)
(-0.00355733 0.00191151 0.0104483)
(0.012013 -1.20341e-05 0.0369094)
(-0.00402649 0.00735208 0.0372801)
(0.00154555 0.000434347 0.00819728)
(0.00234908 -3.36693e-05 0.0125489)
(0.00143857 -0.00046672 0.0143516)
(-0.000522461 -0.000537471 0.0146987)
(-0.00256611 -0.000468376 0.0136143)
(-0.00450901 -0.000361363 0.0108758)
(0.0102942 -0.000951093 0.0388713)
(-0.00442162 0.00441709 0.0409108)
(0.00317528 -0.00137736 0.0113912)
(0.00249236 -0.00228668 0.0132687)
(-0.000466501 -0.00257538 0.0136098)
(-0.00270392 -0.00272118 0.0123605)
(-0.001835 -0.00194115 0.00894091)
(0.00473619 0.000325877 0.0347956)
(-0.00141384 -0.000135732 0.0398684)
(0.0016028 -0.0018409 0.00936444)
(0.00188472 -0.00355908 0.0104571)
(-0.000399076 -0.00452101 0.0108767)
(-0.00198303 -0.00182491 0.00894114)
(-0.000816931 -0.000658681 0.00816148)
(-0.000736066 0.00413246 0.0430628)
(-3.82866e-05 0.0119978 0.0369379)
(-0.000988426 0.0102572 0.038902)
(0.000600814 0.00490733 0.0347629)
(-4.54757e-05 -0.000376686 -0.00719633)
(-0.00322426 -0.00296404 -0.0085855)
(-0.00980146 -0.0124923 0.0188711)
(0.00059124 -0.0131571 0.0184866)
(0.0132997 -0.00982713 -0.00826511)
(0.00249418 0.0010137 -0.00829081)
(-0.00295757 -0.00326471 -0.00867085)
(-0.0151463 -0.0151286 0.0203571)
(0.000407833 0.00190271 0.00781819)
(-0.000407096 0.00190267 0.00781711)
(0.0302091 -0.0134925 0.0202325)
(0.0218238 -0.00563332 0.0173682)
(0.00232167 0.00169231 -0.00833198)
(-0.0124952 -0.00981697 0.0188409)
(0.00189798 0.000412778 0.00781244)
(-0.000643978 -0.000637799 0.00813852)
(0.000644143 -0.000637915 0.00813841)
(-0.00189735 0.000413022 0.00781307)
(0.037311 -0.000525817 0.0173515)
(0.0174575 -0.000622017 -0.00683635)
(-0.000367404 -3.87212e-05 -0.00724824)
(-0.0131499 0.000575369 0.0184647)
(0.0018958 -0.000407175 0.00781189)
(-0.000634786 0.000638196 0.0081414)
(0.000633818 0.000638264 0.00814081)
(-0.00189577 -0.000407607 0.00781064)
(0.0367017 0.000257596 0.0172691)
(0.0182018 0.000753914 -0.00693578)
(-0.00979697 0.0132015 -0.0083424)
(-0.0134921 0.0302079 0.0202137)
(0.000414248 -0.0018927 0.00780887)
(-0.000415266 -0.00189324 0.00781024)
(0.0293953 0.0293755 0.0202208)
(0.0191804 0.00275178 0.0182847)
(0.00755674 0.00147573 -0.00864812)
(0.0010801 0.00232242 -0.00767778)
(-0.00561312 0.0218578 0.0173499)
(-0.000529588 0.0373206 0.0173412)
(0.000251742 0.0366927 0.017266)
(0.0027506 0.0191694 0.0182916)
(0.00914771 0.00909939 0.0164415)
(0.00161162 0.002273 -0.00829125)
(-0.000646124 0.0174496 -0.00684602)
(0.000703379 0.0181644 -0.00697351)
(0.00147701 0.00755063 -0.00866073)
(-8.48424e-05 -0.000471783 -0.0133536)
(-0.00325863 -0.00337885 -0.0164305)
(-0.0104429 -0.0158716 0.0106345)
(0.000750297 -0.0164564 0.0101895)
(0.0155029 -0.0110874 -0.0182663)
(0.00211827 0.00125455 -0.0150345)
(-0.00338818 -0.00318678 -0.0163984)
(-0.0158586 -0.0158707 0.00936978)
(0.000284989 0.00122821 0.00918015)
(-0.000285112 0.00122842 0.00918041)
(0.029875 -0.0150693 0.00954256)
(0.0237748 -0.00651335 0.0102125)
(0.00294468 0.00246596 -0.0156414)
(-0.0158688 -0.0104388 0.010629)
(0.00122805 0.000284519 0.00917874)
(-0.00103293 -0.00103093 0.00909661)
(0.00103335 -0.00103082 0.00909676)
(-0.00122794 0.000284789 0.0091788)
(0.0374171 -0.00104369 0.00963264)
(0.0212823 -0.00112722 -0.015325)
(-0.000460576 -8.00827e-05 -0.0133526)
(-0.0164609 0.000750329 0.0101891)
(0.00123155 -0.000285411 0.00917956)
(-0.00103199 0.00102816 0.00909611)
(0.00103299 0.00102848 0.00909638)
(-0.0012315 -0.000285013 0.00917922)
(0.0368101 0.000654962 0.00957892)
(0.0215269 3.14071e-05 -0.0157837)
(-0.0110788 0.0154936 -0.0182767)
(-0.0150743 0.029873 0.00954049)
(0.000284301 -0.00122639 0.00917729)
(-0.000283654 -0.00122538 0.00917768)
(0.0282668 0.0282626 0.00966981)
(0.0216774 0.00410163 0.0102334)
(0.00870007 0.00154438 -0.0168283)
(0.00127416 0.00213383 -0.0153838)
(-0.00650053 0.0237582 0.0102143)
(-0.00103579 0.0374137 0.00962871)
(0.000655979 0.0367964 0.00957588)
(0.00411221 0.0216856 0.0102233)
(0.0111521 0.0111677 0.0106661)
(0.00248643 0.00295203 -0.0156478)
(-0.00111276 0.0212754 -0.0153348)
(-5.35292e-07 0.0214769 -0.0157592)
(0.00155929 0.00869185 -0.0168229)
(-8.59459e-05 -0.000473016 -0.0136633)
(-0.00329042 -0.00339161 -0.0167812)
(-0.0104839 -0.0159651 0.0103301)
(0.000727999 -0.0165455 0.00987745)
(0.0156071 -0.0110688 -0.0186082)
(0.00222149 0.00116586 -0.0157104)
(-0.00340142 -0.00321064 -0.0167947)
(-0.0158775 -0.0158912 0.00916727)
(0.000310083 0.00106417 0.00925257)
(-0.000309975 0.00106442 0.00925222)
(0.0300567 -0.0150563 0.00924596)
(0.0239021 -0.00652995 0.00979472)
(0.00297402 0.00250318 -0.015999)
(-0.0159608 -0.0104743 0.0103274)
(0.00106242 0.000307939 0.0092523)
(-0.00103325 -0.00103535 0.00922021)
(0.00103405 -0.00103496 0.00922029)
(-0.00106184 0.000306798 0.00925244)
(0.0376909 -0.00116293 0.00927439)
(0.0214247 -0.00121825 -0.0156431)
(-0.00046104 -7.88403e-05 -0.0136605)
(-0.0165506 0.000734614 0.00987828)
(0.00106548 -0.000309302 0.00925289)
(-0.00103467 0.00103314 0.00921927)
(0.00103397 0.00103399 0.00921932)
(-0.00106785 -0.000309711 0.00925261)
(0.036998 0.000603117 0.00921451)
(0.0216106 -5.60625e-05 -0.016057)
(-0.0110593 0.0156194 -0.0186018)
(-0.0150644 0.0300562 0.00924407)
(0.000308052 -0.00106442 0.00925167)
(-0.000306687 -0.00106219 0.00925169)
(0.0282145 0.0282217 0.0092553)
(0.0216611 0.00419819 0.0097938)
(0.00868134 0.00157163 -0.0171604)
(0.00121025 0.00231398 -0.0158087)
(-0.00652464 0.0238756 0.0098118)
(-0.00115481 0.0376884 0.00927529)
(0.000608389 0.0369922 0.00921353)
(0.00420929 0.0216802 0.00979257)
(0.011157 0.0111956 0.0102539)
(0.00253002 0.00298753 -0.0160179)
(-0.00119628 0.02142 -0.0156452)
(-5.37871e-05 0.0215882 -0.0160684)
(0.00160871 0.00867678 -0.0171539)
(-8.38909e-05 -0.000471466 -0.0136556)
(-0.00322528 -0.00337823 -0.0167659)
(-0.0104839 -0.0159521 0.0103414)
(0.000728295 -0.0165365 0.00988731)
(0.0156168 -0.0110542 -0.0185809)
(0.00227812 0.00114326 -0.0157472)
(-0.00341222 -0.00327171 -0.0167857)
(-0.0158711 -0.015867 0.00919112)
(0.000339238 0.00104568 0.00925477)
(-0.00033901 0.00104569 0.00925417)
(0.0300712 -0.0150215 0.00925798)
(0.0238931 -0.00653249 0.00980056)
(0.00298997 0.00253069 -0.0160003)
(-0.0159539 -0.0104853 0.0103371)
(0.00104363 0.000338283 0.00925388)
(-0.00102958 -0.00103121 0.00925819)
(0.00102939 -0.00103147 0.00925825)
(-0.00104321 0.000338621 0.00925456)
(0.0377285 -0.00118249 0.00928919)
(0.0214312 -0.00121683 -0.0156251)
(-0.000461236 -8.08336e-05 -0.013652)
(-0.0165404 0.000723121 0.00988977)
(0.00104536 -0.000337451 0.00925511)
(-0.00103004 0.00103211 0.00925781)
(0.00103045 0.00103118 0.00925763)
(-0.00104371 -0.000337582 0.00925459)
(0.0370151 0.000589074 0.00922783)
(0.0215879 -6.48185e-05 -0.0160822)
(-0.0110376 0.0156063 -0.0185745)
(-0.0150228 0.0300719 0.00925901)
(0.000337077 -0.0010443 0.00925432)
(-0.000338166 -0.0010458 0.00925454)
(0.0282001 0.0281978 0.00926107)
(0.0216458 0.00420946 0.00979524)
(0.00866581 0.00161124 -0.0171333)
(0.00124824 0.00217187 -0.0160076)
(-0.00650811 0.0238929 0.00980052)
(-0.00117915 0.0377329 0.00928791)
(0.000583584 0.0370031 0.00923063)
(0.00421294 0.0216326 0.00980127)
(0.0112061 0.0111346 0.0102506)
(0.00248356 0.00296019 -0.0160123)
(-0.00121257 0.0214339 -0.0156271)
(-9.46794e-05 0.0215796 -0.0160129)
(0.00159037 0.00866353 -0.0171455)
(-8.285e-05 -0.000470672 -0.0136527)
(-0.00320961 -0.00337674 -0.0168342)
(-0.0104846 -0.0159504 0.0103435)
(0.000727944 -0.016535 0.00988951)
(0.01563 -0.0110448 -0.0185751)
(0.0022829 0.00119844 -0.0154739)
(-0.00339838 -0.00330601 -0.0167161)
(-0.0158703 -0.0158562 0.00919468)
(0.000342675 0.0010426 0.00925197)
(-0.000343829 0.00104302 0.00925136)
(0.030071 -0.0150123 0.00925634)
(0.023892 -0.00652708 0.0098105)
(0.00298029 0.00251309 -0.015999)
(-0.0159511 -0.0104907 0.0103428)
(0.00104102 0.000344231 0.00925086)
(-0.00103078 -0.00102956 0.00926593)
(0.00102999 -0.00102961 0.00926601)
(-0.00104102 0.000343862 0.00925108)
(0.0377331 -0.00118622 0.00929038)
(0.0214222 -0.00122249 -0.0156239)
(-0.000461493 -8.1943e-05 -0.0136496)
(-0.0165403 0.000721436 0.00989333)
(0.00104071 -0.00034254 0.00925148)
(-0.00103067 0.00103064 0.00926554)
(0.00103069 0.00103049 0.00926549)
(-0.00104138 -0.000342902 0.00925109)
(0.0370137 0.000583886 0.00923181)
(0.0216026 -4.69897e-05 -0.016043)
(-0.0110361 0.0156115 -0.0185745)
(-0.0150121 0.03007 0.00925658)
(0.000342953 -0.00104247 0.0092509)
(-0.000342839 -0.00104171 0.00925109)
(0.0281872 0.0281929 0.00925678)
(0.0216319 0.0042133 0.00979743)
(0.00866207 0.00160882 -0.017141)
(0.00124938 0.00216584 -0.0160372)
(-0.00650979 0.0238888 0.00981057)
(-0.00118373 0.0377383 0.00929067)
(0.000582217 0.0370082 0.00923108)
(0.00421126 0.021629 0.00979936)
(0.0111577 0.0111742 0.0102481)
(0.00247949 0.00295695 -0.0159985)
(-0.00122512 0.0214241 -0.0156231)
(-6.24176e-05 0.0215807 -0.0160408)
(0.00159701 0.0086644 -0.0171319)
(-8.27249e-05 -0.000470451 -0.0136483)
(-0.00321048 -0.00337519 -0.0168512)
(-0.0104832 -0.0159528 0.0103462)
(0.000731733 -0.0165367 0.00989238)
(0.0156322 -0.0110471 -0.0185718)
(0.00231693 0.00119528 -0.0160668)
(-0.00339865 -0.00330816 -0.0167028)
(-0.0158674 -0.0158571 0.00919579)
(0.000344205 0.0010387 0.00925151)
(-0.000345588 0.00103981 0.00925073)
(0.0300708 -0.0150141 0.009258)
(0.0238755 -0.0065275 0.00981179)
(0.00299188 0.00253336 -0.0160135)
(-0.0159521 -0.0104916 0.0103429)
(0.00104097 0.000344683 0.00925062)
(-0.00102931 -0.00102957 0.00926769)
(0.00102861 -0.00102944 0.00926765)
(-0.00104058 0.0003447 0.00925104)
(0.037729 -0.00118605 0.00929261)
(0.0214214 -0.00122794 -0.0156267)
(-0.000461356 -8.23035e-05 -0.0136524)
(-0.0165407 0.000719831 0.0098924)
(0.00104059 -0.000344526 0.00925147)
(-0.0010292 0.00102923 0.0092675)
(0.00102902 0.00102909 0.00926749)
(-0.00104143 -0.000345116 0.00925083)
(0.0370164 0.000585276 0.00923113)
(0.0216313 -1.69555e-05 -0.0160157)
(-0.0110463 0.0156118 -0.0185805)
(-0.0150091 0.0300679 0.00925821)
(0.000344814 -0.00103999 0.00925019)
(-0.000344811 -0.00103932 0.00925105)
(0.0281886 0.0281935 0.00925526)
(0.0216283 0.00420766 0.00979934)
(0.00867363 0.00158915 -0.0171402)
(0.00116496 0.00223126 -0.0156788)
(-0.00651638 0.0239008 0.009788)
(-0.00118561 0.0377397 0.00929069)
(0.000583197 0.0370098 0.00923151)
(0.00421523 0.0216321 0.00979494)
(0.0111732 0.011156 0.0102464)
(0.00249901 0.0029719 -0.0159869)
(-0.00122519 0.0214211 -0.0156197)
(-6.1624e-05 0.0215788 -0.0160406)
(0.00160206 0.00866131 -0.0171365)
(-8.24931e-05 -0.000470493 -0.0136519)
(-0.00327916 -0.00339454 -0.01671)
(-0.0104842 -0.0159513 0.010346)
(0.000732051 -0.0165363 0.00989122)
(0.0156339 -0.0110449 -0.0185688)
(0.00232073 0.00119153 -0.0160507)
(-0.00338183 -0.00323549 -0.016835)
(-0.0158627 -0.0158619 0.00919521)
(0.000344971 0.00103948 0.00925114)
(-0.000344833 0.00104053 0.00925087)
(0.0300715 -0.0150139 0.00925758)
(0.0238753 -0.00652425 0.00980887)
(0.00299362 0.00253531 -0.0160156)
(-0.0159532 -0.0104918 0.0103407)
(0.00104044 0.000344827 0.00925026)
(-0.00102919 -0.0010294 0.00926795)
(0.00102918 -0.00102933 0.0092679)
(-0.00103913 0.000344725 0.00925103)
(0.0377288 -0.0011846 0.00929195)
(0.0214262 -0.00122329 -0.0156264)
(-0.000461143 -8.15862e-05 -0.0136482)
(-0.0165394 0.000719038 0.00989291)
(0.00103975 -0.000344776 0.00925147)
(-0.00102929 0.00102951 0.0092679)
(0.00102908 0.00102916 0.00926793)
(-0.00104028 -0.000344604 0.009251)
(0.0370144 0.000585067 0.00923177)
(0.0216005 -4.73832e-05 -0.0160427)
(-0.0110352 0.0156074 -0.0185789)
(-0.0150087 0.0300717 0.00925718)
(0.000344539 -0.00104008 0.00925059)
(-0.000345132 -0.0010395 0.00925104)
(0.028191 0.0281891 0.00925494)
(0.0216342 0.00421129 0.00979842)
(0.00866302 0.00161248 -0.0171294)
(0.00125921 0.00213783 -0.0154224)
(-0.00651045 0.0239053 0.00980778)
(-0.00118796 0.0377426 0.00929086)
(0.000578124 0.0370055 0.00923307)
(0.00421294 0.0216237 0.00979952)
(0.0112036 0.0111309 0.0102528)
(0.00245601 0.00294369 -0.0159846)
(-0.00121785 0.0214339 -0.015617)
(-9.93072e-05 0.0215632 -0.0160694)
(0.00159681 0.00865927 -0.0171401)
(-8.29945e-05 -0.000470793 -0.0136523)
(-0.003279 -0.00339377 -0.0167073)
(-0.0104841 -0.0159511 0.0103437)
(0.000730708 -0.0165363 0.00989077)
(0.015619 -0.011043 -0.0185726)
(0.00222488 0.00122818 -0.016073)
(-0.00338201 -0.00323645 -0.0168415)
(-0.0158645 -0.0158599 0.00919471)
(0.000345077 0.00103937 0.0092511)
(-0.000344982 0.00103925 0.00925026)
(0.0300719 -0.0150128 0.00925611)
(0.0238785 -0.00652202 0.00981877)
(0.00297354 0.0025067 -0.0160162)
(-0.0159541 -0.0104911 0.0103413)
(0.00103996 0.000344548 0.00925012)
(-0.00102891 -0.00102896 0.00926775)
(0.00102872 -0.00102901 0.00926782)
(-0.00104039 0.000345244 0.00925051)
(0.0377305 -0.00118521 0.00929073)
(0.0214275 -0.00122984 -0.0156297)
(-0.000460969 -8.12987e-05 -0.0136493)
(-0.0165404 0.000719909 0.0098919)
(0.00104029 -0.000344571 0.00925095)
(-0.00102915 0.00102912 0.00926767)
(0.00102911 0.0010292 0.00926752)
(-0.00104036 -0.000344131 0.00924999)
(0.0370137 0.00058415 0.00923138)
(0.0216027 -4.86555e-05 -0.0160429)
(-0.0110386 0.0156148 -0.0185805)
(-0.0150104 0.0300711 0.00925655)
(0.000344722 -0.00103921 0.00924985)
(-0.000345107 -0.00103928 0.00925063)
(0.0281898 0.0281899 0.00925451)
(0.0216328 0.00421118 0.009795)
(0.00866427 0.00160243 -0.0171288)
(0.00122075 0.00222141 -0.015407)
(-0.00651092 0.0239016 0.00979285)
(-0.0011864 0.0377393 0.00928993)
(0.000581581 0.0370081 0.00923156)
(0.00421239 0.0216265 0.00980145)
(0.0111941 0.011138 0.0102515)
(0.0024865 0.00296389 -0.0159822)
(-0.00122185 0.0214184 -0.0156196)
(-6.0464e-05 0.0215813 -0.0160417)
(0.00160383 0.00866092 -0.017144)
(-8.57012e-05 -0.000471837 -0.0136533)
(-0.00329044 -0.00338712 -0.0167773)
(-0.0104927 -0.0159553 0.0103409)
(0.000721641 -0.0165363 0.00989085)
(0.0156155 -0.0110485 -0.0185807)
(0.00222665 0.00116932 -0.0156913)
(-0.00339366 -0.00321413 -0.016766)
(-0.0158551 -0.0158687 0.00919552)
(0.000344708 0.00103924 0.009251)
(-0.000344762 0.00103962 0.00925054)
(0.0300681 -0.0150077 0.0092573)
(0.0238992 -0.00652278 0.00979398)
(0.00297259 0.00250068 -0.0159918)
(-0.0159508 -0.0104833 0.0103412)
(0.0010394 0.000344498 0.00924999)
(-0.00102837 -0.0010288 0.00926787)
(0.00102843 -0.00102873 0.00926781)
(-0.00103885 0.000344669 0.0092507)
(0.0377327 -0.00118914 0.00929002)
(0.0214191 -0.00123432 -0.0156292)
(-0.000460264 -7.9144e-05 -0.0136489)
(-0.0165404 0.000726798 0.00989197)
(0.00103953 -0.000344522 0.00925102)
(-0.0010285 0.00102869 0.00926774)
(0.00102865 0.00102869 0.00926762)
(-0.00103959 -0.000344515 0.00925134)
(0.0370167 0.00058413 0.00923088)
(0.0216315 -1.90536e-05 -0.0160083)
(-0.0110342 0.0156128 -0.0185745)
(-0.0150146 0.0300695 0.00925515)
(0.00034471 -0.0010394 0.00925016)
(-0.000344555 -0.00103922 0.00925104)
(0.0281882 0.0281935 0.00925415)
(0.021622 0.00420604 0.00979903)
(0.00867459 0.00157729 -0.0171383)
(0.00124988 0.00222519 -0.0157972)
(-0.00650937 0.0238767 0.0098186)
(-0.00118011 0.0377335 0.00929035)
(0.000587125 0.0370083 0.00923003)
(0.00421751 0.0216373 0.00979556)
(0.0111466 0.0111799 0.0102483)
(0.00249536 0.00296418 -0.0160146)
(-0.00121421 0.0214227 -0.0156283)
(-5.57798e-05 0.0215792 -0.016044)
(0.0016199 0.00866014 -0.0171343)
(-8.34158e-05 -0.000470818 -0.0136532)
(-0.00323246 -0.00337962 -0.0168377)
(-0.0104882 -0.0159543 0.0103416)
(0.000724869 -0.0165356 0.0098905)
(0.0156227 -0.0110411 -0.0185823)
(0.00221813 0.00122352 -0.015432)
(-0.00339672 -0.00328225 -0.0167107)
(-0.015862 -0.0158622 0.00919545)
(0.000344818 0.00103985 0.00925097)
(-0.000344417 0.00103906 0.00925065)
(0.0300725 -0.0150094 0.00925575)
(0.023903 -0.0065171 0.00980711)
(0.00296559 0.00249118 -0.0159799)
(-0.0159509 -0.0104877 0.0103428)
(0.00103877 0.000345035 0.00925072)
(-0.00102875 -0.00102842 0.00926752)
(0.00102885 -0.00102869 0.00926759)
(-0.00103927 0.000343961 0.00924975)
(0.0377382 -0.00118651 0.00929077)
(0.02143 -0.00121352 -0.0156172)
(-0.000460982 -8.12709e-05 -0.0136494)
(-0.0165411 0.00072543 0.00989292)
(0.00103929 -0.000344325 0.00925071)
(-0.00102859 0.00102865 0.00926752)
(0.00102855 0.00102837 0.00926744)
(-0.00103919 -0.000345252 0.00925003)
(0.0370118 0.00058082 0.00923015)
(0.0215623 -9.30698e-05 -0.0160508)
(-0.0110395 0.0156112 -0.0185709)
(-0.0150138 0.0300695 0.00925662)
(0.000344446 -0.00103895 0.00925024)
(-0.000344583 -0.00103928 0.00925027)
(0.0281871 0.0281932 0.00925352)
(0.0216305 0.00421265 0.00979483)
(0.00865662 0.00161228 -0.0171366)
(0.00122501 0.00222763 -0.0160483)
(-0.00651396 0.0238776 0.00980545)
(-0.00118394 0.0377336 0.0092903)
(0.000583189 0.0370061 0.00923138)
(0.00421146 0.021628 0.00979923)
(0.0111571 0.0111766 0.0102442)
(0.0025056 0.00297373 -0.0160218)
(-0.00122506 0.0214266 -0.0156282)
(-6.26289e-05 0.0215798 -0.0160425)
(0.00159881 0.0086637 -0.0171303)
(-8.3753e-05 -0.000471127 -0.0136528)
(-0.00321334 -0.00337449 -0.0168207)
(-0.0104869 -0.0159538 0.0103404)
(0.000727175 -0.0165367 0.0098893)
(0.0156166 -0.0110512 -0.01858)
(0.00227749 0.00114387 -0.0157447)
(-0.00339986 -0.00330439 -0.016726)
(-0.0158684 -0.0158567 0.00919453)
(0.000344069 0.00103888 0.00925051)
(-0.000344834 0.00103919 0.00924977)
(0.0300693 -0.0150102 0.00925549)
(0.0238914 -0.00652996 0.00980367)
(0.00298702 0.00252515 -0.0159982)
(-0.0159535 -0.0104912 0.0103375)
(0.00103867 0.000344664 0.0092495)
(-0.00102843 -0.00102847 0.00926747)
(0.00102789 -0.00102809 0.0092673)
(-0.00103915 0.000344767 0.0092504)
(0.0377327 -0.00118817 0.00928938)
(0.0214232 -0.00123087 -0.0156278)
(-0.000460988 -8.12978e-05 -0.0136506)
(-0.0165403 0.000721911 0.00989076)
(0.00103866 -0.00034456 0.00925092)
(-0.00102822 0.00102803 0.00926737)
(0.0010285 0.00102837 0.00926721)
(-0.00103968 -0.000343949 0.00925054)
(0.0370132 0.000581322 0.00923079)
(0.0216008 -5.08147e-05 -0.0160451)
(-0.0110303 0.0156076 -0.0185739)
(-0.015013 0.0300717 0.00925533)
(0.000344671 -0.00103991 0.00924962)
(-0.000344007 -0.00103803 0.00925099)
(0.0281873 0.0281931 0.0092525)
(0.0216285 0.0042072 0.00979731)
(0.00866531 0.00159671 -0.0171389)
(0.00128122 0.00215945 -0.015736)
(-0.00650366 0.0238871 0.00980831)
(-0.00118184 0.0377364 0.00928937)
(0.000585567 0.037009 0.00922862)
(0.00421553 0.0216318 0.00979527)
(0.0111751 0.0111568 0.0102463)
(0.00247722 0.00295283 -0.0160054)
(-0.00121554 0.0214193 -0.0156254)
(-5.76234e-05 0.0215787 -0.0160474)
(0.00160104 0.0086618 -0.0171382)
(-8.49243e-05 -0.000471539 -0.0136529)
(-0.00324744 -0.00338135 -0.0167987)
(-0.0104907 -0.0159551 0.0103408)
(0.000725068 -0.0165367 0.00988865)
(0.0156179 -0.0110507 -0.0185786)
(0.0022801 0.00114644 -0.0157359)
(-0.00340241 -0.00325238 -0.0167599)
(-0.0158566 -0.0158657 0.00919484)
(0.000343522 0.00103841 0.00925139)
(-0.000345147 0.00103974 0.00925061)
(0.0300693 -0.0150103 0.00925452)
(0.0238925 -0.00653017 0.0097986)
(0.00298937 0.00252903 -0.0160054)
(-0.0159517 -0.0104844 0.0103411)
(0.00103872 0.000344944 0.00925088)
(-0.00102821 -0.00102768 0.00926772)
(0.00102721 -0.00102803 0.00926777)
(-0.00103776 0.000343961 0.00925075)
(0.0377359 -0.00118837 0.00928845)
(0.0214208 -0.00123002 -0.0156313)
(-0.000460324 -7.9331e-05 -0.0136509)
(-0.0165409 0.000727169 0.00989169)
(0.00103763 -0.000343791 0.00925099)
(-0.00102887 0.00102832 0.0092677)
(0.00102711 0.0010273 0.00926765)
(-0.00103985 -0.000344963 0.00925029)
(0.0370075 0.000578888 0.00923104)
(0.0216212 -4.4673e-05 -0.016011)
(-0.0110349 0.015614 -0.0185776)
(-0.0150144 0.0300712 0.00925453)
(0.000343082 -0.00103869 0.00925049)
(-0.000345491 -0.00103885 0.00925041)
(0.0281875 0.0281901 0.00925149)
(0.0216275 0.00420572 0.00979768)
(0.0086712 0.00159052 -0.0171421)
(0.0012493 0.0022226 -0.0158174)
(-0.00651274 0.0238787 0.00982567)
(-0.00118192 0.0377352 0.00928962)
(0.000579161 0.0370003 0.00923146)
(0.00421608 0.0216286 0.00979481)
(0.0111764 0.011156 0.0102448)
(0.00249961 0.00296572 -0.0160079)
(-0.00120352 0.0214383 -0.0156299)
(-0.000120381 0.0215476 -0.0160458)
(0.00160418 0.00865512 -0.0171381)
(-8.2239e-05 -0.000470281 -0.0136517)
(-0.00324471 -0.00338496 -0.0166908)
(-0.0104851 -0.0159512 0.0103416)
(0.000731162 -0.0165359 0.00988979)
(0.0156315 -0.0110468 -0.0185731)
(0.00231674 0.00119524 -0.016069)
(-0.0033889 -0.00327951 -0.0168511)
(-0.0158687 -0.0158574 0.00919564)
(0.000343841 0.00103923 0.00925157)
(-0.000344657 0.00103941 0.00925072)
(0.0300702 -0.0150143 0.00925471)
(0.0238757 -0.0065266 0.00981109)
(0.00299274 0.00253498 -0.0160127)
(-0.0159574 -0.0104938 0.0103386)
(0.00103695 0.000344189 0.00925021)
(-0.00102844 -0.00102755 0.00926802)
(0.00102726 -0.00102763 0.00926811)
(-0.00103823 0.000344564 0.00925148)
(0.0377312 -0.00118408 0.00928995)
(0.0214165 -0.00122972 -0.0156265)
(-0.000461078 -8.19864e-05 -0.0136504)
(-0.016542 0.000718576 0.00989193)
(0.00103738 -0.00034473 0.0092515)
(-0.00102823 0.00102747 0.00926788)
(0.00102757 0.00102773 0.00926804)
(-0.00103881 -0.000344367 0.00925157)
(0.0370125 0.000586008 0.00923)
(0.0216164 -1.54571e-05 -0.0160333)
(-0.0110404 0.0156154 -0.0185823)
(-0.0150114 0.0300702 0.0092557)
(0.000344106 -0.00103918 0.00925063)
(-0.000344338 -0.00103847 0.00925175)
(0.0281919 0.0281899 0.00925235)
(0.0216357 0.0042108 0.00979465)
(0.00866968 0.00160927 -0.0171321)
(0.00122142 0.00222257 -0.0154026)
(-0.00651466 0.023901 0.00979868)
(-0.00118646 0.0377382 0.00928876)
(0.000583073 0.0370076 0.00923032)
(0.00421456 0.0216258 0.00979813)
(0.0112057 0.0111336 0.0102498)
(0.00248984 0.00296587 -0.0159936)
(-0.00122248 0.0214173 -0.0156225)
(-6.02565e-05 0.02158 -0.0160435)
(0.00159691 0.00866159 -0.0171375)
(-8.26335e-05 -0.000470357 -0.0136518)
(-0.00322161 -0.0033777 -0.0167883)
(-0.0104866 -0.0159534 0.0103417)
(0.000728684 -0.0165358 0.00989065)
(0.0156282 -0.011043 -0.0185765)
(0.0022648 0.00121556 -0.0160066)
(-0.00341022 -0.00327438 -0.0167595)
(-0.0158643 -0.0158579 0.00919521)
(0.000344946 0.00103729 0.00925169)
(-0.000343676 0.00103734 0.00925139)
(0.0300712 -0.0150137 0.00925593)
(0.0238856 -0.00651752 0.00980325)
(0.00297956 0.00251232 -0.0160059)
(-0.0159551 -0.0104898 0.010337)
(0.00103922 0.000344234 0.00925068)
(-0.00102716 -0.00102774 0.00926809)
(0.00102774 -0.00102753 0.00926803)
(-0.0010386 0.000344252 0.00925092)
(0.0377322 -0.00118347 0.00929062)
(0.0214324 -0.00121763 -0.0156283)
(-0.000460895 -8.09261e-05 -0.0136515)
(-0.0165411 0.000721708 0.00988947)
(0.00103907 -0.00034435 0.00925167)
(-0.00102709 0.00102732 0.00926796)
(0.00102763 0.00102733 0.00926791)
(-0.00103789 -0.000343873 0.00925086)
(0.037016 0.000586312 0.00922853)
(0.0215804 -6.81823e-05 -0.0160863)
(-0.0110385 0.015609 -0.0185808)
(-0.0150115 0.0300702 0.00925426)
(0.00034403 -0.00103788 0.00925095)
(-0.000344294 -0.00103807 0.0092511)
(0.028192 0.02819 0.00925226)
(0.0216374 0.00421071 0.00979418)
(0.00866202 0.00161719 -0.0171265)
(0.00123194 0.00219874 -0.0154667)
(-0.00651748 0.0238951 0.00980972)
(-0.00118571 0.0377369 0.0092893)
(0.000582649 0.037006 0.00922993)
(0.0042129 0.0216247 0.00979776)
(0.0112074 0.0111328 0.0102492)
(0.00247326 0.00295532 -0.0159951)
(-0.00122895 0.0214246 -0.0156271)
(-6.44122e-05 0.02158 -0.0160479)
(0.00159611 0.00866175 -0.0171378)
(-8.4886e-05 -0.000471461 -0.0136535)
(-0.00326481 -0.00338311 -0.0167767)
(-0.0104895 -0.0159555 0.0103397)
(0.0007257 -0.0165364 0.00988801)
(0.0156048 -0.0110473 -0.0185823)
(0.00220112 0.00117377 -0.015718)
(-0.00340133 -0.00323331 -0.0167679)
(-0.0158619 -0.0158614 0.00919496)
(0.000344218 0.00103721 0.00925131)
(-0.000344023 0.00103806 0.00925067)
(0.0300716 -0.0150101 0.00925355)
(0.0238935 -0.00652069 0.00979815)
(0.0029668 0.00249256 -0.0160056)
(-0.0159557 -0.0104881 0.010336)
(0.00103832 0.000344162 0.00925004)
(-0.00102671 -0.00102714 0.00926799)
(0.00102727 -0.00102691 0.00926777)
(-0.00103727 0.000343609 0.00925108)
(0.0377343 -0.00118654 0.00928907)
(0.0214377 -0.00122685 -0.0156282)
(-0.000459966 -7.89366e-05 -0.0136486)
(-0.0165421 0.000726145 0.0098901)
(0.00103791 -0.000343658 0.00925129)
(-0.00102709 0.00102699 0.00926798)
(0.00102659 0.00102718 0.00926781)
(-0.00103849 -0.000344661 0.00925115)
(0.0370098 0.000579888 0.00922918)
(0.0215634 -9.77466e-05 -0.0160561)
(-0.0110391 0.0156264 -0.0185787)
(-0.015017 0.0300691 0.00925422)
(0.00034412 -0.00103732 0.00925073)
(-0.000344346 -0.00103685 0.00925125)
(0.0281868 0.0281926 0.00925199)
(0.0216259 0.00420793 0.00979679)
(0.00866064 0.00159302 -0.0171297)
(0.001214 0.00231856 -0.015787)
(-0.00651927 0.0238742 0.0098162)
(-0.00118215 0.0377305 0.00928872)
(0.000585355 0.0370061 0.00922985)
(0.00421449 0.0216328 0.00979563)
(0.0111687 0.0111658 0.0102459)
(0.00252768 0.00298578 -0.0160129)
(-0.00121292 0.0214201 -0.0156314)
(-5.73408e-05 0.0215791 -0.0160486)
(0.00161222 0.00866006 -0.0171369)
(-8.47713e-05 -0.000471232 -0.013654)
(-0.00327597 -0.00338655 -0.0168514)
(-0.0104912 -0.0159577 0.0103403)
(0.000722046 -0.0165357 0.00989)
(0.0156093 -0.0110365 -0.0185816)
(0.00213772 0.00126135 -0.0154101)
(-0.00338673 -0.00324784 -0.0166912)
(-0.0158579 -0.0158668 0.00919552)
(0.000343609 0.0010368 0.00925171)
(-0.000344857 0.00103798 0.00925173)
(0.0300728 -0.0150083 0.00925444)
(0.0239046 -0.00651152 0.00980173)
(0.00294333 0.00245349 -0.0159944)
(-0.0159519 -0.0104892 0.0103401)
(0.00103802 0.000344313 0.0092511)
(-0.00102654 -0.00102703 0.0092677)
(0.00102675 -0.00102673 0.00926775)
(-0.00103687 0.000343356 0.00925085)
(0.0377342 -0.00118757 0.00928749)
(0.0214238 -0.00123645 -0.0156276)
(-0.000460576 -8.0486e-05 -0.01365)
(-0.0165407 0.000725283 0.00989191)
(0.00103703 -0.000343503 0.00925133)
(-0.00102682 0.00102681 0.00926771)
(0.00102647 0.00102691 0.0092677)
(-0.00103817 -0.000344409 0.00925143)
(0.0370124 0.000582045 0.00922928)
(0.0216012 -5.48927e-05 -0.0160511)
(-0.0110407 0.0156107 -0.0185786)
(-0.0150145 0.0300695 0.00925341)
(0.000344289 -0.00103786 0.00925103)
(-0.000343698 -0.00103658 0.00925115)
(0.028187 0.0281935 0.00925054)
(0.0216204 0.00420582 0.00980002)
(0.00866517 0.00158396 -0.017137)
(0.00122855 0.0022232 -0.0160708)
(-0.00651986 0.0238798 0.00981828)
(-0.00118349 0.0377348 0.00928846)
(0.000584897 0.0370094 0.00922819)
(0.00421521 0.0216399 0.00979192)
(0.0111479 0.0111834 0.0102469)
(0.00250743 0.00297442 -0.0160195)
(-0.00122575 0.0214259 -0.0156344)
(-5.81374e-05 0.0215804 -0.0160494)
(0.00161907 0.00866113 -0.0171336)
(-8.20946e-05 -0.000470107 -0.0136554)
(-0.00327068 -0.00340895 -0.016759)
(-0.0104869 -0.0159584 0.0103371)
(0.000727728 -0.016537 0.00988773)
(0.0156228 -0.0110372 -0.0185867)
(0.00224623 0.00124347 -0.0157648)
(-0.00337923 -0.00322421 -0.0167911)
(-0.0158575 -0.0158639 0.00919461)
(0.000344133 0.00103687 0.0092512)
(-0.000343985 0.00103659 0.00925103)
(0.0300731 -0.0150129 0.00925238)
(0.0238853 -0.0065109 0.0098102)
(0.00297048 0.0025037 -0.0159896)
(-0.015954 -0.0104907 0.0103359)
(0.00103752 0.000344005 0.00925103)
(-0.00102581 -0.00102639 0.00926762)
(0.00102645 -0.00102671 0.00926782)
(-0.00103679 0.000343325 0.00925098)
(0.0377295 -0.00118219 0.00928731)
(0.0214209 -0.00122048 -0.0156327)
(-0.000461064 -8.17161e-05 -0.013652)
(-0.0165412 0.000721748 0.00988893)
(0.00103853 -0.000343553 0.00925135)
(-0.00102619 0.00102634 0.00926764)
(0.00102632 0.00102607 0.00926763)
(-0.00103796 -0.000344423 0.00925183)
(0.0370131 0.000587292 0.00922843)
(0.0216018 -4.67585e-05 -0.0160498)
(-0.0110497 0.0156104 -0.0185881)
(-0.0150117 0.0300669 0.00925417)
(0.000344019 -0.00103577 0.0092507)
(-0.000344171 -0.00103659 0.00925093)
(0.02819 0.0281909 0.00924913)
(0.021632 0.00421367 0.00979413)
(0.00866004 0.00161023 -0.0171367)
(0.00114267 0.00228287 -0.0157143)
(-0.00652503 0.0238901 0.0097901)
(-0.00118637 0.0377341 0.00928634)
(0.000581473 0.0370064 0.00922846)
(0.00420902 0.0216284 0.00979552)
(0.0111646 0.0111705 0.0102423)
(0.00252962 0.00299065 -0.0160135)
(-0.00122797 0.0214217 -0.015635)
(-6.50857e-05 0.0215778 -0.0160499)
(0.00159256 0.00866509 -0.017133)
(-8.23297e-05 -0.000470284 -0.0136533)
(-0.00324457 -0.00338495 -0.0166916)
(-0.010486 -0.0159538 0.0103381)
(0.000731122 -0.0165369 0.00988742)
(0.0156271 -0.0110457 -0.0185813)
(0.00231514 0.00118891 -0.016059)
(-0.0033887 -0.00327803 -0.0168482)
(-0.0158649 -0.0158598 0.00919568)
(0.000344118 0.00103704 0.00925184)
(-0.00034376 0.00103759 0.00925136)
(0.030071 -0.0150147 0.00925319)
(0.0238739 -0.00652142 0.00980504)
(0.00299076 0.00252952 -0.0160143)
(-0.0159585 -0.0104936 0.010335)
(0.00103655 0.00034419 0.009251)
(-0.00102634 -0.00102612 0.00926816)
(0.0010261 -0.00102588 0.00926811)