/*--------------------------------*- C++ -*----------------------------------*\
| =========                 |                                                 |
| \\      /  F ield         | OpenFOAM: The Open Source CFD Toolbox           |
|  \\    /   O peration     | Version:  v1906                                 |
|   \\  /    A nd           | Web:      www.OpenFOAM.com                      |
|    \\/     M anipulation  |                                                 |
\*---------------------------------------------------------------------------*/
FoamFile
{
    version     2.0;
    format      ascii;
    class       volScalarField;
    location    "0.4";
    object      p;
}
// * * * * * * * * * * * * * * * * * * * * * * * * * * * * * * * * * * * * * //

dimensions      [0 2 -2 0 0 0 0];


internalField   nonuniform List<scalar> 
118248
(
-1.77311e-08
0.000275668
0.000353072
0.000453171
0.000253892
0.000202632
0.000281037
0.000686122
0.000513262
0.000537044
0.000551281
0.000475308
0.000178448
0.000347992
0.000512292
0.000506725
0.000511946
0.000512058
0.000604492
0.000277391
4.54742e-05
0.00045384
0.000535476
0.000513479
0.000510724
0.000526308
0.000612866
0.000246254
0.000265752
0.000552001
0.000513923
0.000527151
0.000534536
0.000468076
0.000242718
0.000214203
0.000472582
0.000605565
0.000614234
0.000467641
0.0003459
0.000181575
0.000280534
0.000249521
0.000242812
0.00130377
0.0011672
0.000756841
0.000799188
0.000989789
0.00110589
0.00116691
0.00122516
0.00115448
0.00115448
0.000255262
0.000356562
0.00121348
0.000754004
0.00115412
0.00176331
0.0017632
0.00115426
-0.000618241
0.00107325
0.00130317
0.000798135
0.00115434
0.00176305
0.00176303
0.0011545
-0.000500972
0.00101443
0.000991526
0.000256216
0.00115442
0.00115448
-0.000828824
-0.000157469
0.00109222
0.00110861
0.000355323
-0.000619571
-0.000500317
-0.000157003
0.000429185
0.00121362
0.00107386
0.00101627
0.00109258
0.00231356
0.00214207
0.00147024
0.00150412
0.00187718
0.00206543
0.00214581
0.00198096
0.00201404
0.00201404
0.00106416
0.00112932
0.00217316
0.00147026
0.00201425
0.00255517
0.00255519
0.00201396
0.000262639
0.00194869
0.0023124
0.00150451
0.00201416
0.00255508
0.00255509
0.00201396
0.000341227
0.0018676
0.00187769
0.00106424
0.002014
0.00201401
0.000139532
0.000635776
0.00201639
0.00206551
0.00112889
0.000262313
0.000341017
0.000636352
0.00125775
0.00217502
0.00194945
0.00186974
0.00201729
0.00303845
0.00286599
0.00219437
0.00222629
0.00259858
0.00278437
0.00286914
0.00271201
0.00274847
0.00274862
0.00179152
0.00185584
0.00289826
0.0021947
0.00274868
0.00328063
0.00328062
0.00274851
0.000987642
0.0026716
0.00303705
0.00222668
0.00274849
0.0032806
0.00328061
0.00274854
0.00107039
0.00259327
0.00259826
0.00179176
0.00274865
0.00274859
0.000869385
0.00136162
0.00273982
0.002786
0.00185716
0.000987752
0.00106985
0.00136135
0.00197629
0.00289943
0.00267209
0.00259234
0.00273908
0.00375904
0.00358711
0.00291692
0.0029484
0.00331883
0.0035035
0.00358726
0.00343445
0.00347178
0.00347173
0.00251292
0.00257764
0.00361796
0.00291661
0.00347177
0.00400391
0.00400399
0.00347176
0.00170827
0.00339289
0.00375739
0.00294863
0.00347176
0.00400396
0.00400397
0.00347177
0.00179172
0.00331433
0.0033188
0.00251253
0.00347171
0.0034718
0.0015886
0.00208179
0.00345913
0.0035053
0.00257571
0.00170778
0.0017918
0.00208213
0.00269536
0.00361783
0.00339221
0.00331576
0.00345997
0.00448096
0.00430899
0.00363888
0.00367057
0.00404084
0.00422731
0.00430925
0.00415645
0.00419394
0.00419377
0.0032352
0.00329998
0.00433931
0.00363899
0.00419385
0.00472626
0.00472627
0.00419408
0.00243049
0.0041147
0.00447953
0.00367101
0.00419399
0.00472621
0.00472623
0.00419375
0.00251432
0.00403669
0.00404079
0.0032345
0.00419379
0.00419397
0.00231048
0.0028041
0.00418173
0.00422609
0.00329722
0.00242943
0.00251324
0.00280375
0.00341712
0.00434028
0.00411482
0.00403594
0.00418149
0.00520317
0.00503101
0.00436112
0.00439281
0.00476253
0.00494743
0.00503154
0.0048786
0.00491608
0.004916
0.00395687
0.00402109
0.00506267
0.00436101
0.00491595
0.00544846
0.00544849
0.00491616
0.00315236
0.0048367
0.00520162
0.00439295
0.00491609
0.00544847
0.00544852
0.004916
0.00323599
0.00475708
0.00476309
0.00395721
0.00491607
0.00491622
0.00303244
0.00352586
0.00490381
0.00494809
0.00402104
0.00315212
0.00323574
0.00352622
0.00413941
0.00506205
0.00483747
0.00475837
0.00490394
0.00592517
0.00575314
0.00508333
0.00511485
0.00548453
0.00566974
0.00575374
0.00560084
0.00563812
0.00563809
0.00467903
0.00474359
0.00578478
0.00508307
0.0056382
0.00617056
0.00617061
0.00563819
0.00387463
0.00555922
0.00592376
0.00511513
0.00563812
0.00617056
0.00617054
0.0056381
0.0039583
0.00548109
0.00548542
0.00467927
0.00563816
0.00563824
0.00375471
0.00424793
0.00562553
0.00567203
0.00474253
0.00387419
0.00395824
0.00424869
0.00486154
0.005783
0.00555901
0.00548152
0.00562616
0.0066475
0.00647535
0.00580552
0.00583707
0.00620723
0.00639319
0.00647578
0.00632303
0.00636023
0.0063603
0.00540096
0.00546477
0.00650633
0.0058052
0.00636035
0.00689271
0.00689274
0.00636028
0.00459636
0.00628108
0.00664583
0.00583718
0.00636018
0.00689269
0.0068927
0.00636025
0.00468041
0.00620314
0.00620735
0.00540162
0.00636035
0.00636029
0.00447694
0.00497029
0.00634801
0.00639349
0.00546549
0.00459665
0.00468028
0.00497072
0.00558381
0.00650608
0.0062815
0.00620243
0.00634811
0.00736956
0.00719583
0.00652732
0.0065591
0.0069296
0.00711498
0.00719973
0.00704512
0.00708235
0.00708245
0.00612359
0.0061872
0.00722814
0.00652763
0.00708253
0.00761487
0.00761481
0.00708249
0.00531881
0.00700299
0.00736817
0.00655951
0.0070824
0.00761484
0.00761488
0.00708241
0.0054025
0.00692357
0.00692966
0.00612366
0.00708252
0.0070824
0.00519891
0.00569269
0.00707056
0.00711713
0.00618788
0.00531872
0.00540208
0.00569238
0.0063061
0.00722877
0.00700362
0.00692461
0.00706993
0.00809173
0.00792016
0.00724945
0.0072813
0.00765167
0.00783742
0.00791966
0.00776733
0.00780459
0.00780457
0.00684576
0.00690941
0.00795034
0.00724988
0.00780466
0.00833704
0.00833707
0.00780459
0.00604083
0.00772529
0.00809024
0.00728163
0.00780461
0.00833706
0.00833704
0.0078046
0.00612517
0.00765024
0.00765162
0.00684557
0.00780465
0.00780471
0.00592116
0.00641493
0.00779292
0.00783793
0.00690959
0.00604079
0.00612428
0.00641462
0.00702794
0.00795065
0.00772583
0.00764681
0.00779233
0.00881404
0.00864234
0.00797171
0.00800344
0.00837388
0.00855836
0.00864176
0.00848941
0.00852684
0.0085268
0.00756792
0.00763236
0.00867279
0.00797191
0.00852687
0.00905932
0.00905933
0.00852695
0.00676328
0.00844805
0.00881259
0.00800394
0.0085269
0.00905932
0.00905929
0.00852679
0.0068473
0.00836994
0.00837418
0.00756786
0.00852686
0.00852701
0.00664339
0.00713694
0.00851489
0.00856232
0.00763103
0.0067628
0.00684648
0.00713699
0.00775022
0.00867284
0.00844804
0.00836915
0.0085148
0.00953625
0.00936364
0.00869405
0.0087257
0.00909606
0.00928125
0.00936513
0.00921183
0.00924903
0.00924897
0.0082902
0.00835473
0.00939469
0.00869428
0.00924914
0.00978151
0.00978161
0.0092492
0.00748549
0.00917026
0.00953484
0.00872619
0.00924902
0.00978144
0.00978142
0.0092489
0.00756948
0.00909107
0.00909628
0.00829004
0.00924907
0.00924927
0.00736571
0.0078592
0.00923689
0.0092833
0.00835392
0.00748513
0.00756938
0.0078595
0.00847254
0.00939529
0.00917008
0.00909535
0.00923743
0.0102582
0.0100878
0.00941625
0.00944782
0.00981754
0.0100025
0.0100847
0.00993381
0.00997111
0.00997113
0.00901202
0.00907619
0.010118
0.00941593
0.00997125
0.0105037
0.0105037
0.00997133
0.00820725
0.00989257
0.0102567
0.00944807
0.00997115
0.0105036
0.0105036
0.00997108
0.00829053
0.00981018
0.00981829
0.00901253
0.00997128
0.00997125
0.00808757
0.00858093
0.00995791
0.010005
0.00907629
0.0082074
0.008291
0.0085814
0.00919446
0.0101166
0.0098924
0.00981333
0.00995912
0.0109805
0.0108078
0.0101386
0.0101701
0.0105398
0.0107246
0.010809
0.0106561
0.0106933
0.0106933
0.00973406
0.00979741
0.0108399
0.0101381
0.0106933
0.0112257
0.0112258
0.0106932
0.00892923
0.0106143
0.0109789
0.0101701
0.0106932
0.0112257
0.0112257
0.0106932
0.00901298
0.0105359
0.0105405
0.00973449
0.0106934
0.0106933
0.00880974
0.0093031
0.0106805
0.010727
0.00979861
0.00892949
0.00901323
0.00930371
0.00991673
0.0108379
0.0106142
0.0105355
0.0106813
0.0117028
0.0115285
0.0108606
0.0108921
0.0112629
0.0114485
0.0115325
0.0113782
0.0114154
0.0114154
0.0104566
0.0105208
0.0115601
0.0108602
0.0114154
0.0119478
0.0119479
0.0114154
0.00965178
0.0113362
0.011701
0.0108923
0.0114153
0.0119479
0.0119478
0.0114155
0.00973605
0.0112612
0.0112622
0.0104567
0.0114155
0.0114155
0.00953199
0.0100257
0.0114042
0.0114495
0.0105213
0.00965193
0.00973545
0.0100258
0.0106391
0.0115623
0.0113371
0.0112579
0.0114032
0.0124247
0.012251
0.0115822
0.0116142
0.011985
0.0121724
0.0122542
0.0121002
0.0121375
0.0121375
0.0111787
0.0112419
0.0122821
0.0115827
0.0121375
0.01267
0.01267
0.0121375
0.0103738
0.012058
0.0124232
0.0116145
0.0121375
0.01267
0.0126699
0.0121375
0.0104581
0.0119805
0.0119845
0.0111782
0.0121375
0.0121376
0.010254
0.0107479
0.0121259
0.0121704
0.0112418
0.0103733
0.0104572
0.0107476
0.0113613
0.0122836
0.0120588
0.0119798
0.0121251
0.0131469
0.0129753
0.0123043
0.0123363
0.0127066
0.0128927
0.0129742
0.0128225
0.0128596
0.0128596
0.0119007
0.011964
0.0130068
0.012305
0.0128597
0.0133921
0.0133921
0.0128597
0.0110958
0.0127807
0.0131454
0.0123366
0.0128595
0.013392
0.0133921
0.0128596
0.0111801
0.0127027
0.0127067
0.011901
0.0128597
0.0128597
0.0109762
0.01147
0.0128474
0.0128921
0.0119655
0.011096
0.0111796
0.0114698
0.0120833
0.0130052
0.0127814
0.0127022
0.0128479
0.0138687
0.0136983
0.0130267
0.0130583
0.0134282
0.0136127
0.0136953
0.0135444
0.0135817
0.0135817
0.0126227
0.0126869
0.0137287
0.0130265
0.0135818
0.0141142
0.0141142
0.0135818
0.0118179
0.0135028
0.0138675
0.0130588
0.0135817
0.0141141
0.0141141
0.0135816
0.0119011
0.0134198
0.0134291
0.0126227
0.0135817
0.0135817
0.0116981
0.0121913
0.0135685
0.0136168
0.0126855
0.0118175
0.0119016
0.0121921
0.0128051
0.0137278
0.013503
0.013424
0.0135697
0.0145911
0.0144199
0.0137488
0.0137805
0.0141508
0.0143368
0.0144177
0.0142665
0.0143038
0.0143038
0.0133445
0.0134081
0.0144499
0.0137485
0.0143038
0.0148363
0.0148362
0.0143038
0.0125398
0.0142248
0.0145894
0.0137807
0.0143037
0.0148363
0.0148362
0.0143037
0.0126241
0.014147
0.014151
0.0133451
0.0143038
0.0143038
0.0124202
0.0129138
0.014292
0.0143368
0.0134085
0.0125398
0.0126237
0.0129141
0.0135273
0.0144497
0.0142252
0.0141462
0.0142915
0.0153131
0.0151418
0.0144707
0.0145024
0.0148731
0.0150597
0.0151396
0.0149883
0.0150258
0.0150258
0.0140671
0.0141308
0.0151713
0.0144706
0.0150259
0.0155584
0.0155584
0.0150259
0.0132621
0.0149471
0.0153113
0.0145026
0.0150257
0.0155583
0.0155582
0.0150258
0.0133461
0.0148669
0.0148723
0.0140667
0.0150259
0.0150259
0.0131424
0.0136362
0.0150137
0.0150565
0.0141306
0.0132618
0.0133456
0.013636
0.0142495
0.0151729
0.0149475
0.0148682
0.0150135
0.0160353
0.0158615
0.0151928
0.0152247
0.015595
0.0157802
0.0158645
0.0157106
0.0157479
0.015748
0.0147886
0.014851
0.0158942
0.0151928
0.015748
0.0162804
0.0162805
0.0157478
0.0139838
0.015669
0.0160337
0.0152249
0.0157478
0.0162804
0.0162803
0.015748
0.0140684
0.0155899
0.0155947
0.014789
0.015748
0.0157479
0.0138644
0.0143585
0.0157361
0.0157815
0.0148531
0.0139839
0.0140676
0.0143579
0.0149716
0.0158948
0.0156696
0.0155904
0.0157356
0.0167575
0.0165847
0.0159151
0.0159468
0.0163175
0.0165021
0.0165857
0.0164328
0.0164701
0.0164702
0.0155113
0.0155746
0.0166162
0.0159148
0.0164701
0.0170026
0.0170026
0.0164701
0.0147063
0.0163914
0.0167558
0.0159468
0.01647
0.0170026
0.0170026
0.0164701
0.0147908
0.0163134
0.0163172
0.0155114
0.0164702
0.0164701
0.0145866
0.0150805
0.0164583
0.0165026
0.0155758
0.0147063
0.0147899
0.0150803
0.0156938
0.0166156
0.0163919
0.0163127
0.0164582
0.0174796
0.0173068
0.016637
0.0166689
0.0170395
0.0172253
0.0173081
0.0171549
0.0171922
0.0171922
0.0162336
0.016297
0.0173382
0.0166371
0.0171923
0.0177247
0.0177247
0.0171923
0.0154286
0.0171132
0.0174781
0.0166692
0.0171922
0.0177246
0.0177247
0.017192
0.0155124
0.0170324
0.0170395
0.0162333
0.0171922
0.0171922
0.0153085
0.0158023
0.0171797
0.0172273
0.0162969
0.015428
0.0155119
0.0158023
0.0164158
0.0173383
0.0171137
0.0170347
0.0171801
0.0182016
0.0180298
0.0173592
0.017391
0.0177613
0.0179476
0.0180292
0.017877
0.0179144
0.0179142
0.0169556
0.0170197
0.0180616
0.0173592
0.0179143
0.0184469
0.0184469
0.0179144
0.0161506
0.017836
0.0182001
0.0173912
0.0179143
0.0184468
0.0184467
0.0179142
0.0162343
0.0177568
0.0177616
0.0169557
0.0179144
0.0179145
0.0160308
0.0165245
0.0179023
0.0179482
0.0170192
0.0161504
0.0162343
0.0165246
0.0171378
0.0180598
0.0178359
0.0177569
0.0179022
0.0189238
0.018753
0.0180812
0.0181131
0.0184833
0.01867
0.0187499
0.018599
0.0186365
0.0186363
0.0176774
0.0177414
0.0187831
0.0180811
0.0186364
0.0191689
0.019169
0.0186364
0.0168724
0.0185578
0.0189223
0.0181132
0.0186365
0.019169
0.0191689
0.0186364
0.0169569
0.0184822
0.018484
0.0176775
0.0186364
0.0186366
0.0167528
0.0172467
0.0186246
0.0186697
0.0177405
0.0168723
0.0169564
0.0172467
0.01786
0.0187814
0.0185578
0.018479
0.0186247
0.0196458
0.0194749
0.018803
0.0188349
0.0192057
0.019391
0.0194718
0.0193211
0.0193584
0.0193583
0.0183997
0.018464
0.019504
0.0188033
0.0193586
0.019891
0.0198911
0.0193585
0.0175947
0.0192802
0.0196442
0.0188353
0.0193584
0.019891
0.0198908
0.0193585
0.0176792
0.0192027
0.019206
0.0183997
0.0193585
0.0193586
0.0174751
0.017969
0.0193465
0.0193927
0.0184628
0.0175945
0.0176787
0.0179691
0.0185825
0.0195033
0.0192797
0.0192011
0.0193469
0.0203678
0.0201938
0.0195253
0.0195571
0.0199276
0.0201135
0.0201971
0.0200432
0.0200805
0.0200805
0.0191213
0.0191847
0.0202266
0.0195253
0.0200806
0.0206131
0.0206131
0.0200806
0.0183166
0.020002
0.0203665
0.0195574
0.0200806
0.0206131
0.0206131
0.0200806
0.0184013
0.0199239
0.0199281
0.0191216
0.0200806
0.0200805
0.018197
0.0186912
0.0200692
0.0201153
0.0191842
0.0183162
0.0184003
0.0186906
0.0193044
0.0202267
0.020002
0.0199231
0.0200683
0.0210901
0.0209193
0.0202473
0.0202792
0.02065
0.0208362
0.020916
0.0207652
0.0208026
0.0208026
0.0198438
0.0199069
0.0209482
0.0202473
0.0208026
0.0213351
0.0213351
0.0208026
0.0190386
0.0207239
0.0210884
0.0202794
0.0208026
0.0213351
0.0213351
0.0208025
0.0191232
0.0206461
0.0206499
0.0198434
0.0208026
0.0208027
0.0189189
0.0194127
0.0207908
0.0208352
0.0199058
0.0190382
0.0191225
0.0194129
0.0200261
0.0209489
0.0207242
0.0206453
0.0207908
0.0218121
0.0216392
0.0209694
0.0210012
0.0213719
0.0215565
0.0216402
0.0214874
0.0215246
0.0215246
0.020566
0.0206302
0.0216705
0.0209693
0.0215247
0.0220572
0.0220572
0.0215247
0.0197611
0.0214463
0.0218106
0.0210015
0.0215247
0.0220572
0.0220572
0.0215246
0.0198453
0.0213681
0.0213722
0.0205657
0.0215247
0.0215247
0.019641
0.0201348
0.0215124
0.0215593
0.0206283
0.0197604
0.0198446
0.0201349
0.0207479
0.0216709
0.0214463
0.0213674
0.0215129
0.0225343
0.0223612
0.0216915
0.0217232
0.0220944
0.0222805
0.0223623
0.0222094
0.0222467
0.0222467
0.0212877
0.0213512
0.0223914
0.0216912
0.0222467
0.0227792
0.0227793
0.0222468
0.0204827
0.0221682
0.0225327
0.0217234
0.0222467
0.0227793
0.0227793
0.0222467
0.0205673
0.022091
0.0220945
0.0212878
0.0222467
0.0222468
0.0203631
0.020857
0.022235
0.0222801
0.0213505
0.0204823
0.0205666
0.020857
0.0214702
0.0223917
0.0221682
0.0220895
0.022235
0.0232563
0.0230833
0.0224135
0.0224453
0.0228161
0.023001
0.0230843
0.0229315
0.0229688
0.0229687
0.0220099
0.0220737
0.0231144
0.0224133
0.0229688
0.0235013
0.0235014
0.0229688
0.0212047
0.0228907
0.0232548
0.0224455
0.0229688
0.0235013
0.0235013
0.0229688
0.0212892
0.022812
0.0228164
0.0220098
0.0229688
0.0229689
0.0210851
0.021579
0.022957
0.0230035
0.0220724
0.0212044
0.0212887
0.0215791
0.0221923
0.023115
0.0228905
0.0228117
0.0229571
0.0239784
0.0238054
0.0231356
0.0231673
0.0235381
0.023723
0.0238064
0.0236536
0.0236909
0.0236908
0.0227319
0.0227958
0.0238365
0.0231354
0.0236909
0.0242234
0.0242235
0.0236909
0.0219269
0.0236129
0.0239769
0.0231676
0.0236909
0.0242234
0.0242233
0.0236909
0.0220118
0.0235353
0.0235385
0.0227319
0.0236909
0.023691
0.0218074
0.0223015
0.0236793
0.0237256
0.0227944
0.0219265
0.0220109
0.0223013
0.0229148
0.0238371
0.0236126
0.0235338
0.0236791
0.0247005
0.0245275
0.0238577
0.0238894
0.0242602
0.0244451
0.0245285
0.0243757
0.024413
0.0244129
0.023454
0.0235179
0.0245586
0.0238574
0.024413
0.0249455
0.0249456
0.0244131
0.0226489
0.024335
0.024699
0.0238897
0.024413
0.0249455
0.0249455
0.0244129
0.0227335
0.0242573
0.0242606
0.023454
0.0244129
0.024413
0.0225293
0.0230234
0.024401
0.0244477
0.0235164
0.0226487
0.0227331
0.0230233
0.0236367
0.0245592
0.0243347
0.0242559
0.0244016
0.0254225
0.0252495
0.0245794
0.0246113
0.0249823
0.0251671
0.0252508
0.0250977
0.025135
0.0251349
0.0241761
0.0242397
0.0252805
0.0245796
0.0251351
0.0256675
0.0256676
0.025135
0.0233708
0.0250568
0.0254211
0.0246118
0.025135
0.0256676
0.0256675
0.0251351
0.0234558
0.0249812
0.0249827
0.0241761
0.025135
0.0251351
0.0232513
0.0237453
0.0251238
0.0251698
0.0242383
0.0233705
0.023455
0.0237453
0.0243585
0.0252812
0.0250568
0.024978
0.0251233
0.0261446
0.0259719
0.0253016
0.0253334
0.0257044
0.0258893
0.0259725
0.0258197
0.025857
0.025857
0.0248983
0.0249621
0.0260027
0.0253017
0.0258572
0.0263897
0.0263897
0.0258572
0.0240932
0.025779
0.0261432
0.0253339
0.0258571
0.0263897
0.0263896
0.025857
0.0241779
0.0257009
0.0257048
0.0248981
0.025857
0.0258572
0.0239734
0.0244674
0.0258455
0.0258918
0.0249604
0.0240926
0.0241772
0.0244674
0.0250806
0.0260032
0.0257789
0.0257
0.0258454
0.0268665
0.0266925
0.0260236
0.0260555
0.0264265
0.0266127
0.0266956
0.0265418
0.026579
0.026579
0.0256204
0.0256832
0.0267247
0.0260236
0.0265791
0.0271117
0.0271117
0.0265791
0.0248149
0.0265008
0.0268653
0.0260559
0.0265791
0.0271116
0.0271116
0.0265788
0.0248994
0.0264207
0.0264266
0.0256199
0.0265791
0.026579
0.0246952
0.0251892
0.0265668
0.0266115
0.0256816
0.0248143
0.0248987
0.0251891
0.0258024
0.0267256
0.0265008
0.0264188
0.0265668
0.0275887
0.0274155
0.0267456
0.0267774
0.0271486
0.0273331
0.0274166
0.0272638
0.027301
0.027301
0.0263422
0.026405
0.027447
0.0267453
0.0273011
0.0278336
0.0278337
0.027301
0.0255368
0.0272233
0.0275872
0.0267776
0.027301
0.0278336
0.0278335
0.0273011
0.0256217
0.027144
0.0271485
0.0263424
0.0273011
0.027301
0.0254174
0.0259117
0.0272895
0.0273342
0.0264052
0.0255367
0.0256211
0.0259113
0.0265248
0.0274468
0.0272231
0.0271441
0.0272894
0.0283106
0.0281379
0.0274673
0.0274993
0.0278708
0.0280562
0.0281382
0.0279856
0.028023
0.028023
0.0270642
0.0271276
0.0281678
0.0274674
0.028023
0.0285556
0.0285555
0.0280231
0.0262591
0.0279448
0.0283091
0.0274997
0.028023
0.0285556
0.0285556
0.028023
0.0263439
0.0278669
0.0278706
0.0270641
0.028023
0.0280231
0.0261392
0.0266333
0.0280115
0.0280573
0.027127
0.0262586
0.0263431
0.0266334
0.0272465
0.0281693
0.027945
0.0278661
0.0280114
0.0290326
0.0288594
0.0281895
0.0282213
0.0285928
0.0287791
0.0288605
0.0287077
0.0287449
0.0287449
0.0277862
0.0278496
0.0288896
0.0281892
0.028745
0.0292776
0.0292776
0.028745
0.026981
0.0286665
0.029031
0.0282215
0.0287449
0.0292775
0.0292776
0.0287448
0.0270656
0.0285858
0.0285925
0.0277863
0.0287449
0.028745
0.0268611
0.0273553
0.0287328
0.0287787
0.0278489
0.0269805
0.027065
0.0273551
0.0279683
0.0288905
0.028667
0.028588
0.0287331
0.0297546
0.0295818
0.0289111
0.0289433
0.0293146
0.029502
0.029582
0.0294295
0.0294669
0.0294668
0.028508
0.0285709
0.029613
0.0289112
0.0294668
0.0299996
0.0299995
0.0294669
0.0277028
0.0293887
0.0297529
0.0289435
0.0294669
0.0299995
0.0299994
0.0294667
0.0277877
0.0293108
0.0293142
0.0285081
0.0294669
0.0294669
0.0275831
0.0280771
0.0294553
0.0295001
0.0285706
0.0277026
0.0277872
0.0280775
0.0286906
0.0296141
0.0293893
0.0293103
0.0294554
0.0304766
0.0303033
0.0296333
0.0296652
0.0300366
0.0302226
0.0303043
0.0301516
0.0301888
0.0301888
0.0292302
0.0292925
0.0303345
0.029633
0.0301888
0.0307214
0.0307214
0.0301889
0.0284244
0.0301105
0.030475
0.0296654
0.0301889
0.0307214
0.0307214
0.0301887
0.0285089
0.030028
0.0300366
0.0292298
0.0301888
0.0301887
0.0283047
0.0287989
0.0301769
0.0302234
0.0292917
0.028424
0.0285088
0.0287989
0.0294121
0.030335
0.0301109
0.0300319
0.0301768
0.0311986
0.0310251
0.0303553
0.030387
0.0307584
0.0309424
0.0310263
0.0308735
0.0309107
0.0309107
0.0299519
0.0300151
0.0310567
0.0303548
0.0309107
0.0314433
0.0314433
0.0309107
0.0291465
0.0308328
0.0311969
0.0303871
0.0309107
0.0314433
0.0314433
0.0309106
0.0292313
0.0307518
0.0307587
0.0299518
0.0309106
0.0309107
0.0290267
0.0295209
0.0308986
0.0309441
0.0300138
0.0291459
0.0292307
0.029521
0.0301341
0.0310556
0.0308327
0.0307539
0.0308991
0.0319202
0.0317456
0.0310768
0.0311087
0.0314802
0.0316652
0.0317496
0.0315954
0.0316326
0.0316325
0.030674
0.0307376
0.0317782
0.0310769
0.0316327
0.0321653
0.0321653
0.0316328
0.0298687
0.031555
0.031919
0.0311093
0.0316327
0.0321652
0.0321653
0.0316325
0.0299537
0.0314769
0.0314805
0.0306737
0.0316326
0.0316327
0.0297488
0.030243
0.0316213
0.031667
0.0307352
0.0298677
0.0299527
0.0302431
0.0308562
0.031779
0.0315548
0.031476
0.0316211
0.0326423
0.0324688
0.031799
0.0318309
0.0322021
0.0323878
0.0324701
0.0323174
0.0323545
0.0323545
0.0313955
0.0314583
0.0325005
0.0317986
0.0323545
0.0328871
0.0328872
0.0323545
0.0305902
0.0322765
0.0326407
0.031831
0.0323544
0.0328871
0.0328871
0.0323544
0.0306756
0.0321975
0.0322022
0.0313959
0.0323545
0.0323546
0.0304707
0.0309652
0.0323429
0.0323876
0.0314581
0.0305899
0.0306747
0.0309648
0.0315781
0.0325004
0.0322768
0.0321979
0.0323429
0.0333641
0.0331896
0.0325203
0.0325525
0.0329243
0.0331103
0.0331934
0.0330391
0.0330763
0.0330763
0.0321174
0.03218
0.0332209
0.0325208
0.0330765
0.033609
0.0336091
0.0330764
0.0313119
0.0329984
0.0333627
0.032553
0.0330764
0.033609
0.0336091
0.0330763
0.0313973
0.0329205
0.0329239
0.0321177
0.0330764
0.0330766
0.0311925
0.0316867
0.033065
0.0331096
0.0321798
0.0313119
0.0313968
0.031687
0.0323
0.0332237
0.0329991
0.03292
0.0330651
0.034086
0.0339131
0.0332425
0.0332744
0.0336459
0.0338306
0.0339133
0.033761
0.0337983
0.0337982
0.0328395
0.0329025
0.0339438
0.0332422
0.0337983
0.034331
0.0343309
0.0337984
0.0320339
0.0337205
0.0340846
0.0332748
0.0337983
0.0343308
0.034331
0.0337981
0.0321189
0.0336424
0.0336462
0.0328397
0.0337984
0.0337983
0.0319144
0.0324084
0.0337863
0.0338331
0.0329025
0.0320342
0.0321188
0.032409
0.0330219
0.0339447
0.0337205
0.0336407
0.0337869
0.0348078
0.0346349
0.0339641
0.0339962
0.0343677
0.0345536
0.0346351
0.0344827
0.0345201
0.03452
0.0335616
0.0336248
0.0346656
0.0339642
0.03452
0.0350528
0.0350527
0.0345203
0.0327559
0.0344423
0.0348063
0.0339965
0.0345201
0.0350527
0.0350527
0.0345201
0.0328407
0.0343625
0.0343677
0.0335609
0.03452
0.0345201
0.0326363
0.033131
0.0345089
0.0345536
0.0336224
0.0327551
0.0328404
0.0331303
0.0337438
0.034666
0.0344423
0.0343635
0.0345081
0.0355296
0.0353562
0.0346861
0.0347181
0.035089
0.0352737
0.0353573
0.0352046
0.0352419
0.0352419
0.0342831
0.0343461
0.0353886
0.0346859
0.0352419
0.0357746
0.0357746
0.035242
0.0334779
0.0351644
0.0355282
0.0347184
0.0352419
0.0357745
0.0357746
0.0352419
0.033563
0.0350863
0.0350898
0.0342833
0.0352421
0.0352419
0.0333581
0.0338525
0.0352307
0.0352767
0.034346
0.0334777
0.0335622
0.0338524
0.0344656
0.0353883
0.0351645
0.0350825
0.0352302
0.0362516
0.0360781
0.035408
0.0354399
0.0358116
0.0359983
0.0360792
0.0359265
0.0359638
0.0359637
0.0350049
0.0350676
0.036108
0.0354077
0.0359638
0.0364964
0.0364966
0.0359637
0.0341992
0.0358854
0.0362501
0.0354403
0.0359637
0.0364964
0.0364963
0.0359637
0.0342848
0.0358092
0.0358117
0.035005
0.0359638
0.0359639
0.0340801
0.0345743
0.0359526
0.0359991
0.0350674
0.0341993
0.0342843
0.0345747
0.0351877
0.0361099
0.0358864
0.0358075
0.0359526
0.0369735
0.0368
0.0361298
0.0361618
0.0365333
0.036718
0.036801
0.0366484
0.0366856
0.0366856
0.0357269
0.0357898
0.0368312
0.0361295
0.0366856
0.0372183
0.0372183
0.0366857
0.0349213
0.0366081
0.0369718
0.036162
0.0366856
0.0372182
0.0372183
0.0366855
0.0350064
0.03653
0.0365331
0.0357269
0.0366857
0.0366856
0.0348017
0.0352959
0.0366746
0.0367195
0.035789
0.0349212
0.035006
0.0352962
0.0359094
0.0368325
0.0366081
0.0365282
0.0366739
0.0376955
0.0375218
0.0368519
0.0368838
0.0372553
0.0374413
0.037523
0.0373704
0.0374075
0.0374074
0.0364489
0.0365113
0.037553
0.0368514
0.0374075
0.0379401
0.0379401
0.0374075
0.035643
0.0373296
0.0376938
0.0368839
0.0374074
0.0379401
0.0379401
0.0374074
0.0357279
0.0372498
0.0372554
0.0364485
0.0374074
0.0374074
0.0355236
0.036018
0.0373961
0.0374422
0.0365101
0.0356426
0.0357278
0.0360177
0.036631
0.0375536
0.0373297
0.037251
0.0373955
0.0384171
0.0382425
0.0375731
0.0376054
0.0379775
0.0381626
0.0382463
0.038092
0.0381291
0.0381293
0.0371704
0.0372321
0.0382743
0.0375736
0.0381293
0.0386619
0.0386618
0.0381292
0.0363647
0.0380511
0.0384157
0.0376059
0.0381292
0.0386619
0.0386619
0.0381292
0.0364503
0.0379736
0.0379771
0.0371704
0.0381292
0.0381291
0.0362453
0.03674
0.0381183
0.0381636
0.0372326
0.0363644
0.0364494
0.0367395
0.037353
0.0382755
0.0380517
0.0379727
0.0381175
0.0391388
0.0389657
0.038295
0.0383271
0.0386981
0.0388819
0.0389663
0.0388137
0.038851
0.038851
0.0378919
0.0379544
0.0389982
0.038295
0.0388511
0.0393836
0.0393837
0.038851
0.0370864
0.0387736
0.0391372
0.0383273
0.0388509
0.0393837
0.0393836
0.038851
0.0371714
0.0386935
0.0386981
0.0378919
0.038851
0.0388511
0.0369671
0.0374613
0.0388396
0.0388825
0.0379536
0.037086
0.0371713
0.0374615
0.0380746
0.0389976
0.0387737
0.0386946
0.0388397
0.0398606
0.0396861
0.0390168
0.0390489
0.0394205
0.0396052
0.0396892
0.0395356
0.0395728
0.0395728
0.0386141
0.038677
0.0397185
0.0390169
0.0395729
0.0401055
0.0401056
0.0395729
0.0378086
0.0394953
0.0398593
0.0390494
0.0395729
0.0401055
0.0401056
0.0395728
0.0378939
0.0394173
0.0394208
0.038614
0.0395729
0.039573
0.0376891
0.0381833
0.0395616
0.0396075
0.0386754
0.0378079
0.0378935
0.0381836
0.0387965
0.0397191
0.0394955
0.0394178
0.0395616
0.0405826
0.040409
0.039739
0.0397709
0.0401424
0.0403281
0.0404102
0.0402575
0.0402948
0.0402946
0.039336
0.0393991
0.04044
0.0397386
0.0402947
0.0408274
0.0408274
0.0402947
0.0385303
0.0402168
0.040581
0.039771
0.0402947
0.0408274
0.0408274
0.0402946
0.0386159
0.0401416
0.0401429
0.0393359
0.0402946
0.0402948
0.0384109
0.0389054
0.0402838
0.0403282
0.0393976
0.0385299
0.0386152
0.0389055
0.0395186
0.0404397
0.0402171
0.0401382
0.0402833
0.0413045
0.0411331
0.0404605
0.0404926
0.0408643
0.0410489
0.0411299
0.0409792
0.0410166
0.0410164
0.0400578
0.0401205
0.041162
0.0404605
0.0410165
0.0415492
0.0415493
0.0410167
0.0392521
0.0409392
0.0413029
0.040493
0.0410165
0.0415492
0.0415491
0.0410164
0.0393377
0.0408617
0.0408645
0.0400576
0.0410164
0.0410166
0.0391326
0.0396274
0.0410055
0.0410509
0.0401187
0.0392514
0.0393368
0.0396269
0.0402401
0.0411628
0.040939
0.04086
0.0410046
0.042026
0.0418541
0.0411823
0.0412144
0.0415857
0.0417723
0.0418519
0.0417009
0.0417383
0.0417382
0.0407796
0.0408427
0.041885
0.041182
0.0417383
0.0422708
0.042271
0.0417383
0.039974
0.0416608
0.042024
0.0412139
0.0417381
0.042271
0.0422708
0.0417382
0.0400592
0.041584
0.0415859
0.0407795
0.0417383
0.0417382
0.0398543
0.0403488
0.0417267
0.0417714
0.0408416
0.0399735
0.0400588
0.0403488
0.0409617
0.0418839
0.0416609
0.0415819
0.041727
0.042748
0.042576
0.041904
0.0419362
0.0423083
0.0424941
0.0425736
0.0424226
0.0424599
0.04246
0.0415011
0.0415625
0.0426048
0.0419038
0.04246
0.0429926
0.0429927
0.0424599
0.0406951
0.0423822
0.0427471
0.0419363
0.0424599
0.0429927
0.0429927
0.0424601
0.0407809
0.042304
0.0423076
0.041501
0.04246
0.04246
0.0405762
0.0410707
0.0424488
0.0424926
0.0415633
0.0406952
0.0407804
0.0410706
0.0416839
0.0426063
0.0423827
0.0423037
0.0424487
0.0434697
0.0432986
0.0426256
0.0426578
0.0430296
0.0432139
0.0432949
0.0431446
0.0431817
0.0431818
0.0422233
0.0422863
0.0433278
0.042626
0.0431819
0.0437145
0.0437145
0.043182
0.0414178
0.0431045
0.0434682
0.0426584
0.0431818
0.0437145
0.0437146
0.0431817
0.0415031
0.0430265
0.0430299
0.042223
0.0431818
0.0431819
0.0412979
0.0417925
0.0431707
0.0432171
0.0422842
0.0414168
0.0415022
0.0417923
0.0424054
0.0433279
0.0431044
0.0430255
0.0431704
0.0441914
0.0440168
0.0433474
0.0433796
0.0437512
0.0439365
0.0440199
0.0438663
0.0439035
0.0439035
0.0429443
0.0430062
0.0440496
0.0433474
0.0439037
0.0444363
0.0444364
0.0439036
0.0421386
0.0438263
0.04419
0.0433799
0.0439035
0.0444363
0.0444362
0.0439036
0.0422244
0.0437485
0.0437512
0.0429448
0.0439036
0.0439037
0.0420198
0.0425144
0.0438923
0.0439368
0.0430065
0.0421388
0.0422241
0.0425141
0.0431272
0.0440508
0.0438266
0.0437474
0.0438922
0.0449134
0.0447397
0.0440694
0.0441015
0.0444733
0.0446579
0.044741
0.0445881
0.0446253
0.0446253
0.0436665
0.0437282
0.0447709
0.0440694
0.0446254
0.045158
0.0451581
0.0446253
0.0428606
0.0445478
0.0449118
0.0441019
0.0446253
0.0451581
0.045158
0.0446254
0.0429468
0.0444723
0.0444733
0.0436667
0.0446254
0.0446254
0.0427417
0.0432363
0.0446147
0.0446602
0.0437291
0.0428609
0.0429462
0.0432362
0.0438495
0.0447717
0.0445482
0.0444692
0.0446142
0.0456352
0.0454643
0.0447911
0.0448232
0.045195
0.045379
0.0454601
0.0453099
0.0453471
0.0453471
0.0443883
0.04445
0.045493
0.044791
0.0453471
0.0458798
0.0458798
0.045347
0.0435822
0.0452695
0.0456335
0.0448235
0.0453472
0.0458798
0.0458798
0.045347
0.043668
0.0451904
0.0451949
0.0443881
0.0453472
0.0453471
0.0434632
0.0439576
0.0453351
0.0453806
0.0444491
0.0435821
0.0436674
0.0439577
0.0445707
0.0454933
0.0452697
0.0451877
0.0453355
0.0463568
0.0461836
0.0455128
0.0455449
0.0459166
0.0461017
0.0461841
0.0460315
0.0460689
0.0460687
0.0451103
0.0451732
0.0462147
0.0455127
0.0460688
0.0466015
0.0466016
0.0460689
0.0443046
0.0459913
0.0463552
0.0455451
0.0460689
0.0466015
0.0466016
0.0460686
0.0443899
0.0459134
0.0459171
0.04511
0.0460688
0.046069
0.0441848
0.0446794
0.0460576
0.0461023
0.0451715
0.0443039
0.0443893
0.0446794
0.0452924