/*--------------------------------*- C++ -*----------------------------------*\
| =========                 |                                                 |
| \\      /  F ield         | OpenFOAM: The Open Source CFD Toolbox           |
|  \\    /   O peration     | Version:  v1906                                 |
|   \\  /    A nd           | Web:      www.OpenFOAM.com                      |
|    \\/     M anipulation  |                                                 |
\*---------------------------------------------------------------------------*/
FoamFile
{
    version     2.0;
    format      ascii;
    class       volVectorField;
    location    "0.4";
    object      U;
}
// * * * * * * * * * * * * * * * * * * * * * * * * * * * * * * * * * * * * * //

dimensions      [0 1 -1 0 0 0 0];


internalField   nonuniform List<vector> 
118248
(
(0.00728788 -0.00429077 0.0376473)
(0.000121222 -0.00181239 0.0418083)
(0.000262349 0.00324798 0.00757473)
(0.000696853 0.00207819 0.00765623)
(0.00552491 -0.00452738 0.0413329)
(0.000254625 -0.00150071 0.0413057)
(-0.00176573 5.15443e-05 0.0417273)
(0.00236163 0.00241475 0.0106565)
(0.00130817 0.00277747 0.0123606)
(-3.39707e-05 0.00256676 0.0127075)
(-0.00160179 0.00314609 0.0115156)
(-0.00200838 0.00156268 0.00921007)
(0.00427048 -0.000596659 0.0446259)
(0.00312381 0.0005537 0.00799243)
(0.00269213 0.00132288 0.0123585)
(0.00141287 0.00145221 0.014222)
(-0.000461197 0.00149963 0.0145224)
(-0.00231333 0.0025427 0.0134249)
(-0.00341849 0.00178962 0.0105685)
(0.0121625 -4.45763e-06 0.0372624)
(-0.00417118 0.00701434 0.038727)
(0.00186484 0.000539931 0.00806332)
(0.00246517 -1.25192e-05 0.0127016)
(0.00146918 -0.000461136 0.0145169)
(-0.000527774 -0.000542092 0.0148639)
(-0.00261121 -0.000454977 0.0137768)
(-0.00445213 -0.000351226 0.0110017)
(0.0104545 -0.00114059 0.0394476)
(-0.00435008 0.00465361 0.0414952)
(0.00313036 -0.00157983 0.0115193)
(0.00252028 -0.0023145 0.0134263)
(-0.000454318 -0.00262056 0.0137718)
(-0.00276729 -0.00278261 0.0124974)
(-0.00204286 -0.0019107 0.00886427)
(0.00484163 0.000396215 0.0351833)
(-0.00150529 -0.000109578 0.0408272)
(0.00152605 -0.00200865 0.00926815)
(0.00176491 -0.00342321 0.0105769)
(-0.000391545 -0.00446546 0.0110022)
(-0.00195468 -0.00203321 0.00886392)
(-0.001173 -0.00101151 0.0079216)
(-0.000456429 0.00431838 0.0447584)
(-2.86087e-05 0.0121506 0.0372902)
(-0.00117638 0.0104187 0.0394788)
(0.000674059 0.00501479 0.0351502)
(-3.38992e-05 -0.000276028 -0.00714761)
(-0.00333211 -0.00330162 -0.00862689)
(-0.0100927 -0.0119817 0.0190528)
(0.000578148 -0.0127902 0.018536)
(0.0132096 -0.00963708 -0.00776949)
(0.0026263 0.000823053 -0.00828423)
(-0.00329484 -0.00337439 -0.00871093)
(-0.0154519 -0.0154325 0.0204871)
(0.000527958 0.00224028 0.00756451)
(-0.000527222 0.00224042 0.00756336)
(0.0303029 -0.0127821 0.0200512)
(0.0224956 -0.00520019 0.0173683)
(0.00223099 0.0017684 -0.00834115)
(-0.011983 -0.010107 0.0190211)
(0.00223582 0.000532979 0.00755886)
(-0.000942825 -0.00093628 0.007957)
(0.000943033 -0.000936334 0.00795688)
(-0.00223495 0.000533127 0.00755958)
(0.037191 0.000126298 0.0169703)
(0.0169694 -0.000590366 -0.00613671)
(-0.000274355 -1.92223e-05 -0.00720038)
(-0.0127839 0.000562091 0.0185141)
(0.0022335 -0.000527295 0.00755857)
(-0.000933345 0.000937 0.00795987)
(0.000932336 0.000937021 0.00795928)
(-0.0022337 -0.000527686 0.00755729)
(0.0365612 0.000322436 0.0168683)
(0.0176049 0.00076233 -0.00613328)
(-0.00960986 0.0131071 -0.00785271)
(-0.0127822 0.0303019 0.0200326)
(0.000534284 -0.00223076 0.00755552)
(-0.000535307 -0.00223113 0.00755691)
(0.0292697 0.0292503 0.0196483)
(0.0187618 0.00211794 0.0182515)
(0.00724835 0.00149187 -0.00859502)
(0.000870614 0.00246213 -0.00768713)
(-0.00517839 0.0225277 0.0173514)
(0.00012223 0.0372013 0.0169603)
(0.000317468 0.0365522 0.0168655)
(0.00211762 0.0187514 0.0182585)
(0.00883502 0.00878932 0.0164109)
(0.00168682 0.00218272 -0.00830196)
(-0.000614974 0.016961 -0.00614686)
(0.000715353 0.0175656 -0.00616739)
(0.00149083 0.00724314 -0.0086074)
(-7.04169e-05 -0.000345939 -0.0134099)
(-0.0034404 -0.00349774 -0.0166216)
(-0.0106277 -0.0153207 0.0105567)
(0.000728066 -0.0160209 0.0100295)
(0.0152666 -0.0106967 -0.0178784)
(0.00232243 0.00124452 -0.0151438)
(-0.00350537 -0.00337041 -0.0165876)
(-0.0160788 -0.0160906 0.00912732)
(0.000339397 0.00149794 0.00894858)
(-0.000339466 0.00149824 0.00894882)
(0.0298717 -0.0143972 0.00931618)
(0.0243409 -0.00601974 0.01005)
(0.00290559 0.00260223 -0.0157535)
(-0.0153173 -0.010624 0.0105503)
(0.00149777 0.000338869 0.00894713)
(-0.00130591 -0.00130394 0.00887887)
(0.00130645 -0.00130384 0.008879)
(-0.00149747 0.000339209 0.00894719)
(0.0372187 -0.000418395 0.00938848)
(0.0207548 -0.00107251 -0.0145753)
(-0.000343098 -5.57261e-05 -0.0134059)
(-0.016026 0.000727657 0.0100289)
(0.00150119 -0.000339639 0.00894804)
(-0.00130498 0.00130121 0.00887831)
(0.00130605 0.00130156 0.00887857)
(-0.00150121 -0.000339367 0.00894768)
(0.0365806 0.000692562 0.00934567)
(0.020837 6.37674e-05 -0.0149307)
(-0.0106882 0.0152576 -0.0178901)
(-0.0144028 0.02987 0.00931411)
(0.000338774 -0.00149616 0.00894576)
(-0.00033805 -0.00149503 0.00894619)
(0.0280486 0.0280447 0.00946251)
(0.0212784 0.00357183 0.0100782)
(0.00832124 0.00148829 -0.0169169)
(0.00125656 0.00234836 -0.0154857)
(-0.0060071 0.0243241 0.0100511)
(-0.000410898 0.0372149 0.00938468)
(0.000693882 0.0365663 0.00934259)
(0.00358258 0.0212858 0.0100685)
(0.0108164 0.0108281 0.0105803)
(0.00262514 0.002914 -0.0157585)
(-0.00105577 0.0207464 -0.0145857)
(3.01948e-05 0.0207826 -0.0149158)
(0.00150223 0.00831284 -0.0169116)
(-7.15306e-05 -0.000347151 -0.0137335)
(-0.00347638 -0.00351015 -0.0169919)
(-0.0106701 -0.0154263 0.0102426)
(0.000701964 -0.0161222 0.00970877)
(0.0153752 -0.0106806 -0.0182371)
(0.00243156 0.00117426 -0.0158328)
(-0.0035189 -0.00340176 -0.017006)
(-0.0161017 -0.0161162 0.00893227)
(0.000358984 0.00133301 0.00904125)
(-0.000358862 0.00133336 0.00904092)
(0.0300518 -0.0143873 0.00902741)
(0.02448 -0.00604904 0.00961698)
(0.00293667 0.00264271 -0.0161285)
(-0.0154219 -0.0106606 0.0102394)
(0.00133134 0.000356799 0.00904105)
(-0.0013014 -0.00130361 0.00901114)
(0.00130229 -0.00130314 0.00901122)
(-0.00133059 0.00035566 0.00904115)
(0.037507 -0.000542254 0.00903552)
(0.0209094 -0.00116562 -0.0149079)
(-0.000343501 -5.43957e-05 -0.0137275)
(-0.0161278 0.000708198 0.00970948)
(0.00133439 -0.000358196 0.00904161)
(-0.00130292 0.00130129 0.00901019)
(0.00130218 0.00130217 0.00901024)
(-0.00133686 -0.000358619 0.00904132)
(0.036785 0.000646727 0.00898891)
(0.0209229 -2.7109e-05 -0.0152282)
(-0.0106711 0.0153879 -0.0182304)
(-0.0143955 0.0300518 0.00902564)
(0.000356947 -0.00133338 0.00904039)
(-0.000355563 -0.00133099 0.00904041)
(0.0280036 0.0280104 0.00904722)
(0.021268 0.00367166 0.00961529)
(0.00830202 0.00151606 -0.0172662)
(0.00120442 0.00253383 -0.0159302)
(-0.0060443 0.0244546 0.00963444)
(-0.000534654 0.0375044 0.00903638)
(0.000652541 0.0367784 0.00898789)
(0.00368452 0.0212874 0.00961423)
(0.0108247 0.0108631 0.0101395)
(0.00267347 0.00295375 -0.016148)
(-0.00114287 0.0209032 -0.01491)
(-2.16987e-05 0.0209007 -0.0152413)
(0.00155298 0.00829786 -0.0172605)
(-6.94128e-05 -0.000345776 -0.0137262)
(-0.00341172 -0.00349819 -0.016976)
(-0.0106721 -0.0154145 0.0102546)
(0.000701531 -0.0161142 0.00971911)
(0.0153862 -0.0106652 -0.0182092)
(0.00248706 0.00115209 -0.0158708)
(-0.00353289 -0.00346353 -0.0169969)
(-0.0160971 -0.0160914 0.00895879)
(0.000387241 0.00131407 0.00904475)
(-0.000387137 0.00131417 0.00904419)
(0.0300654 -0.0143515 0.00904043)
(0.0244743 -0.00605314 0.00962329)
(0.00295264 0.00267055 -0.0161303)
(-0.0154159 -0.0106732 0.0102499)
(0.00131206 0.000386417 0.0090439)
(-0.0012978 -0.00129943 0.00904956)
(0.00129759 -0.0012997 0.00904963)
(-0.0013116 0.000386626 0.00904452)
(0.0375465 -0.00056314 0.0090507)
(0.0209167 -0.00116487 -0.0148896)
(-0.00034386 -5.64493e-05 -0.0137195)
(-0.0161188 0.000696011 0.00972144)
(0.00131371 -0.000385443 0.00904509)
(-0.00129826 0.00130033 0.00904919)
(0.00129864 0.0012994 0.00904901)
(-0.00131229 -0.000385674 0.00904462)
(0.0368039 0.00063341 0.00900292)
(0.0209004 -3.30891e-05 -0.0152471)
(-0.0106485 0.0153759 -0.0182035)
(-0.0143535 0.0300665 0.00904149)
(0.000385223 -0.00131281 0.00904435)
(-0.000386246 -0.00131411 0.00904453)
(0.0279911 0.0279887 0.00905266)
(0.021253 0.00368362 0.00961648)
(0.00828682 0.00155764 -0.0172396)
(0.0012541 0.00238523 -0.0161237)
(-0.00602766 0.0244719 0.00962381)
(-0.000559658 0.0375509 0.0090497)
(0.000628549 0.036792 0.00900528)
(0.00368719 0.0212401 0.00962237)
(0.0108731 0.0108023 0.0101353)
(0.00262239 0.00292221 -0.0161419)
(-0.00115871 0.0209198 -0.0148925)
(-6.73148e-05 0.0208907 -0.0151949)
(0.00153391 0.00828392 -0.017251)
(-6.83418e-05 -0.000344995 -0.0137232)
(-0.00340032 -0.00349365 -0.0170429)
(-0.0106731 -0.0154132 0.0102568)
(0.00070092 -0.0161129 0.00972156)
(0.0153988 -0.0106558 -0.0182025)
(0.00249529 0.00119597 -0.0156045)
(-0.00352087 -0.00349577 -0.0169279)
(-0.0160963 -0.0160804 0.00896262)
(0.000390628 0.00131085 0.00904206)
(-0.000391921 0.00131145 0.00904147)
(0.0300652 -0.0143419 0.00903893)
(0.0244734 -0.00604756 0.00963415)
(0.00294476 0.00265361 -0.0161297)
(-0.0154131 -0.0106788 0.0102564)
(0.00130942 0.000392335 0.00904095)
(-0.00129908 -0.00129779 0.00905746)
(0.00129816 -0.00129792 0.00905755)
(-0.00130929 0.000391839 0.00904117)
(0.0375515 -0.000566708 0.00905232)
(0.0209084 -0.00117155 -0.0148889)
(-0.000344131 -5.76369e-05 -0.013717)
(-0.0161188 0.000694122 0.00972522)
(0.00130905 -0.000390451 0.00904158)
(-0.00129888 0.00129897 0.00905707)
(0.00129901 0.00129872 0.00905702)
(-0.00130988 -0.000390914 0.00904117)
(0.0368029 0.000628571 0.00900685)
(0.0209165 -1.74674e-05 -0.0152154)
(-0.0106469 0.0153815 -0.0182032)
(-0.0143423 0.0300642 0.00903917)
(0.000391015 -0.00131082 0.00904098)
(-0.000390802 -0.00130991 0.00904116)
(0.0279782 0.0279847 0.0090486)
(0.021239 0.0036876 0.00961908)
(0.00828271 0.00155442 -0.0172467)
(0.00125415 0.00238148 -0.0161546)
(-0.00602935 0.0244685 0.00963421)
(-0.000564667 0.0375563 0.00905279)
(0.000627055 0.036797 0.00900613)
(0.00368459 0.0212367 0.00962058)
(0.0108236 0.0108432 0.010133)
(0.00261854 0.00291912 -0.0161268)
(-0.00117359 0.0209093 -0.0148879)
(-3.06129e-05 0.020894 -0.0152142)
(0.00154262 0.00828514 -0.0172377)
(-6.81729e-05 -0.000344767 -0.0137188)
(-0.00340193 -0.00349175 -0.0170605)
(-0.0106715 -0.0154156 0.0102594)
(0.000704746 -0.0161146 0.0097244)
(0.0154034 -0.0106577 -0.0181998)
(0.00253319 0.00120589 -0.0161803)
(-0.00352164 -0.00349714 -0.0169138)
(-0.0160936 -0.016081 0.00896374)
(0.000392117 0.00130698 0.00904162)
(-0.000393628 0.00130825 0.0090408)
(0.0300648 -0.0143441 0.00904056)
(0.0244565 -0.00604806 0.00963481)
(0.00295569 0.00267464 -0.016142)
(-0.015414 -0.0106797 0.0102565)
(0.00130932 0.000392751 0.0090407)
(-0.00129766 -0.00129786 0.00905926)
(0.00129685 -0.00129778 0.00905921)
(-0.00130877 0.000392667 0.00904114)
(0.0375473 -0.000566619 0.00905468)
(0.0209078 -0.00117753 -0.0148916)
(-0.000344012 -5.80056e-05 -0.0137197)
(-0.0161192 0.000692681 0.00972434)
(0.00130881 -0.000392554 0.00904157)
(-0.0012975 0.0012975 0.00905906)
(0.00129733 0.00129729 0.00905905)
(-0.00130983 -0.000393193 0.00904092)
(0.0368057 0.000630068 0.00900624)
(0.0209469 1.23555e-05 -0.0151931)
(-0.0106573 0.0153812 -0.0182088)
(-0.0143396 0.0300619 0.00904078)
(0.000392763 -0.00130849 0.00904026)
(-0.000392731 -0.00130765 0.00904116)
(0.0279799 0.027985 0.00904717)
(0.0212354 0.00368175 0.00962088)
(0.00829422 0.001536 -0.017246)
(0.00117185 0.00244075 -0.0158)
(-0.00603599 0.02448 0.00961174)
(-0.000566269 0.0375577 0.00905276)
(0.000628255 0.0367984 0.00900659)
(0.00368879 0.0212395 0.00961625)
(0.0108402 0.0108242 0.0101309)
(0.00263724 0.00293394 -0.0161164)
(-0.00117397 0.0209065 -0.014885)
(-2.98246e-05 0.020892 -0.0152143)
(0.0015469 0.00828205 -0.0172423)
(-6.79225e-05 -0.000344795 -0.0137224)
(-0.00346987 -0.00351681 -0.016922)
(-0.0106726 -0.0154136 0.0102599)
(0.000705068 -0.016114 0.00972328)
(0.0154051 -0.0106555 -0.0181966)
(0.00253632 0.00120209 -0.0161633)
(-0.00349878 -0.00342508 -0.0170434)
(-0.0160876 -0.0160872 0.00896318)
(0.000393005 0.00130775 0.00904124)
(-0.000392893 0.00130897 0.00904093)
(0.0300656 -0.0143441 0.00904018)
(0.0244557 -0.00604473 0.00963244)
(0.00295738 0.00267647 -0.0161446)
(-0.0154155 -0.0106798 0.0102538)
(0.00130883 0.00039285 0.00904033)
(-0.00129747 -0.00129771 0.00905952)
(0.00129746 -0.00129763 0.00905947)
(-0.00130733 0.000392712 0.00904113)
(0.0375469 -0.000564997 0.00905406)
(0.0209121 -0.00117168 -0.0148909)
(-0.000343805 -5.72725e-05 -0.0137154)
(-0.016118 0.000691743 0.00972486)
(0.00130804 -0.000392767 0.00904158)
(-0.00129759 0.00129777 0.00905947)
(0.00129738 0.00129743 0.00905951)
(-0.00130874 -0.000392637 0.00904109)
(0.0368035 0.000629751 0.00900687)
(0.0209144 -1.76773e-05 -0.0152152)
(-0.0106462 0.0153752 -0.0182071)
(-0.0143387 0.0300658 0.00903974)
(0.000392544 -0.00130849 0.00904066)
(-0.000393084 -0.00130772 0.00904116)
(0.0279824 0.0279805 0.00904679)
(0.0212417 0.00368542 0.00961976)
(0.00828367 0.00155969 -0.0172355)
(0.00125126 0.00234982 -0.0155558)
(-0.00602976 0.0244853 0.00963225)
(-0.000568799 0.0375609 0.009053)
(0.000622868 0.0367942 0.00900819)
(0.00368637 0.0212309 0.00962101)
(0.0108717 0.0107974 0.0101379)
(0.00259395 0.00290645 -0.0161153)
(-0.00116591 0.0209193 -0.0148815)
(-6.83526e-05 0.0208754 -0.0152369)
(0.00154033 0.00828024 -0.0172454)
(-6.8529e-05 -0.000345152 -0.0137228)
(-0.00346962 -0.00351601 -0.0169194)
(-0.0106725 -0.0154134 0.0102576)
(0.000703593 -0.016114 0.00972278)
(0.0153892 -0.0106535 -0.0182007)
(0.00243776 0.0012358 -0.0161905)
(-0.00349893 -0.00342624 -0.01705)
(-0.0160893 -0.0160852 0.00896271)
(0.000393109 0.00130759 0.0090412)
(-0.000393019 0.00130775 0.00904035)
(0.0300659 -0.0143426 0.00903868)
(0.0244597 -0.00604237 0.00964227)
(0.00293593 0.00264609 -0.0161452)
(-0.0154164 -0.0106791 0.0102544)
(0.00130836 0.000392548 0.0090402)
(-0.00129718 -0.00129728 0.00905932)
(0.00129702 -0.00129728 0.0090594)
(-0.00130857 0.000393293 0.0090406)
(0.0375487 -0.000565799 0.00905294)
(0.0209136 -0.00117851 -0.0148943)
(-0.000343628 -5.69457e-05 -0.0137165)
(-0.0161189 0.000692779 0.00972387)
(0.00130853 -0.000392582 0.00904104)
(-0.0012975 0.00129738 0.00905924)
(0.00129741 0.00129751 0.00905908)
(-0.00130883 -0.000392092 0.00904006)
(0.0368029 0.000628595 0.00900644)
(0.0209167 -1.91586e-05 -0.0152152)
(-0.0106497 0.015383 -0.0182085)
(-0.0143409 0.0300653 0.00903906)
(0.000392734 -0.00130769 0.00903995)
(-0.000393104 -0.00130749 0.00904074)
(0.0279813 0.0279811 0.00904637)
(0.0212401 0.00368471 0.00961626)
(0.00828489 0.00154883 -0.0172348)
(0.00121346 0.0024355 -0.0155362)
(-0.0060305 0.0244809 0.00961698)
(-0.000567193 0.0375576 0.00905202)
(0.000626725 0.0367969 0.00900666)
(0.00368645 0.021234 0.0096231)
(0.0108616 0.0108049 0.0101366)
(0.00262634 0.002928 -0.0161126)
(-0.00117094 0.0209038 -0.014885)
(-2.85016e-05 0.0208947 -0.0152152)
(0.00154864 0.00828176 -0.0172495)
(-7.12759e-05 -0.000346186 -0.0137238)
(-0.00347775 -0.00350773 -0.0169879)
(-0.0106807 -0.0154177 0.0102546)
(0.000694758 -0.0161142 0.00972291)
(0.0153848 -0.0106594 -0.0182091)
(0.00243597 0.00117817 -0.0158127)
(-0.00351177 -0.00340473 -0.016976)
(-0.0160798 -0.016094 0.00896347)
(0.000392731 0.00130752 0.0090411)
(-0.000392806 0.001308 0.00904065)
(0.0300621 -0.0143378 0.00903978)
(0.0244787 -0.00604265 0.00961763)
(0.0029345 0.002639 -0.0161211)
(-0.015413 -0.0106715 0.0102544)
(0.00130773 0.000392503 0.0090401)
(-0.00129659 -0.00129712 0.00905944)
(0.0012967 -0.00129703 0.00905938)
(-0.00130703 0.000392643 0.00904084)
(0.037551 -0.000569708 0.00905223)
(0.020906 -0.00118423 -0.0148947)
(-0.000342942 -5.47797e-05 -0.0137161)
(-0.0161188 0.000699422 0.0097239)
(0.00130786 -0.000392479 0.00904113)
(-0.00129682 0.00129695 0.0090593)
(0.00129694 0.00129697 0.00905919)
(-0.00130802 -0.000392521 0.00904146)
(0.0368061 0.000628757 0.0090059)
(0.0209464 9.81609e-06 -0.0151855)
(-0.0106452 0.0153816 -0.0182028)
(-0.0143448 0.0300639 0.00903777)
(0.000392754 -0.00130777 0.00904027)
(-0.00039257 -0.00130749 0.00904114)
(0.0279796 0.0279848 0.00904602)
(0.0212292 0.003679 0.00962031)
(0.00829501 0.00152363 -0.0172437)
(0.00123899 0.0024429 -0.0159223)
(-0.00602958 0.0244576 0.00964264)
(-0.00056116 0.0375517 0.00905242)
(0.000632292 0.0367969 0.0090051)
(0.00369217 0.0212448 0.00961702)
(0.010814 0.0108474 0.010133)
(0.00263583 0.00292839 -0.0161449)
(-0.00116247 0.0209077 -0.0148934)
(-2.37271e-05 0.0208925 -0.0152176)
(0.0015655 0.00828111 -0.0172404)
(-6.89475e-05 -0.000345177 -0.0137236)
(-0.00342191 -0.00349659 -0.0170459)
(-0.0106765 -0.0154169 0.0102548)
(0.000697805 -0.0161135 0.00972255)
(0.0153913 -0.0106521 -0.0182099)
(0.00243321 0.00121763 -0.0155621)
(-0.00351919 -0.00347306 -0.0169228)
(-0.0160872 -0.0160873 0.00896342)
(0.000392836 0.00130814 0.00904106)
(-0.000392446 0.00130748 0.00904077)
(0.0300666 -0.0143391 0.00903834)
(0.0244828 -0.00603667 0.0096313)
(0.00293001 0.00263197 -0.0161098)
(-0.0154129 -0.0106759 0.0102565)
(0.00130716 0.000393116 0.00904084)
(-0.00129704 -0.00129673 0.00905907)
(0.00129716 -0.00129701 0.00905914)
(-0.00130749 0.000391945 0.00903982)
(0.0375565 -0.000567004 0.00905283)
(0.020916 -0.00116015 -0.0148818)
(-0.000343655 -5.69382e-05 -0.0137167)
(-0.0161195 0.00069821 0.00972481)
(0.00130758 -0.000392324 0.00904079)
(-0.00129688 0.00129693 0.00905907)
(0.00129686 0.00129663 0.009059)
(-0.00130765 -0.000393343 0.00904015)
(0.0368008 0.000625377 0.0090054)
(0.0208702 -6.67901e-05 -0.0152243)
(-0.0106503 0.0153811 -0.0181996)
(-0.0143443 0.0300636 0.0090391)
(0.00039247 -0.00130736 0.00904036)
(-0.00039255 -0.00130752 0.00904033)
(0.0279782 0.027985 0.00904536)
(0.0212377 0.00368695 0.00961648)
(0.00827724 0.00155722 -0.0172421)
(0.00123199 0.0024393 -0.0161651)
(-0.00603419 0.0244583 0.00962894)
(-0.000564722 0.0375517 0.00905234)
(0.000628183 0.0367948 0.00900638)
(0.00368491 0.0212356 0.00962036)
(0.010823 0.0108454 0.010129)
(0.00264446 0.00293599 -0.0161517)
(-0.00117361 0.020912 -0.0148931)
(-3.07899e-05 0.0208931 -0.015216)
(0.00154448 0.00828445 -0.0172362)
(-6.93108e-05 -0.000345514 -0.0137232)
(-0.00340306 -0.00349062 -0.0170288)
(-0.0106752 -0.0154164 0.0102536)
(0.000700217 -0.0161145 0.0097213)
(0.0153861 -0.0106621 -0.0182081)
(0.00248621 0.00115213 -0.015868)
(-0.0035232 -0.0034951 -0.0169381)
(-0.0160943 -0.0160811 0.0089625)
(0.000392071 0.0013071 0.00904062)
(-0.000392905 0.00130757 0.0090399)
(0.0300631 -0.0143401 0.00903797)
(0.0244727 -0.00605052 0.00962671)
(0.00294949 0.00266448 -0.0161278)
(-0.0154153 -0.0106792 0.0102511)
(0.0013071 0.000392723 0.00903961)
(-0.00129674 -0.00129679 0.00905902)
(0.00129616 -0.00129642 0.00905885)
(-0.00130742 0.000392754 0.0090405)
(0.037551 -0.00056864 0.00905137)
(0.0209094 -0.00117988 -0.0148927)
(-0.000343665 -5.69761e-05 -0.0137178)
(-0.0161187 0.000694516 0.00972265)
(0.00130699 -0.000392567 0.00904104)
(-0.00129649 0.00129634 0.00905893)
(0.00129685 0.00129661 0.00905877)
(-0.00130813 -0.00039199 0.00904065)
(0.0368025 0.000625995 0.00900581)
(0.0209146 -2.13406e-05 -0.0152175)
(-0.0106412 0.015376 -0.0182025)
(-0.0143434 0.0300661 0.0090379)
(0.000392684 -0.00130835 0.00903973)
(-0.000391991 -0.00130629 0.00904112)
(0.0279785 0.0279847 0.00904437)
(0.0212356 0.00368117 0.00961871)
(0.0082862 0.00154304 -0.0172447)
(0.00126859 0.00237877 -0.0158591)
(-0.00602323 0.0244662 0.00963251)
(-0.000562827 0.0375545 0.00905155)
(0.000630633 0.0367977 0.00900379)
(0.00368928 0.0212393 0.00961649)
(0.0108421 0.0108249 0.0101307)
(0.00261674 0.00291618 -0.0161353)
(-0.00116406 0.0209042 -0.0148904)
(-2.57934e-05 0.0208921 -0.015221)
(0.0015459 0.00828263 -0.0172439)
(-7.04299e-05 -0.000345902 -0.0137233)
(-0.00343458 -0.00350214 -0.017009)
(-0.0106787 -0.0154175 0.0102542)
(0.000698256 -0.0161145 0.00972069)
(0.0153875 -0.0106615 -0.0182068)
(0.00248791 0.00115631 -0.0158584)
(-0.00352135 -0.00344362 -0.0169703)
(-0.0160817 -0.0160907 0.0089628)
(0.000391531 0.0013067 0.00904155)
(-0.00039324 0.00130808 0.00904077)
(0.0300631 -0.0143401 0.00903704)
(0.0244736 -0.00605068 0.00962156)
(0.00295148 0.0026679 -0.0161354)
(-0.0154139 -0.0106726 0.0102546)
(0.00130704 0.000392972 0.00904104)
(-0.00129652 -0.00129598 0.00905929)
(0.00129543 -0.00129634 0.00905933)
(-0.00130611 0.000391963 0.00904092)
(0.0375541 -0.000568929 0.00905069)
(0.0209072 -0.00117928 -0.0148968)
(-0.000343027 -5.50216e-05 -0.0137181)
(-0.0161194 0.000699753 0.00972363)
(0.00130602 -0.000391792 0.00904116)
(-0.00129715 0.00129661 0.00905928)
(0.00129545 0.00129554 0.00905922)
(-0.0013082 -0.000393014 0.00904044)
(0.0367965 0.000623841 0.00900583)
(0.020936 -1.43834e-05 -0.0151916)
(-0.0106459 0.0153829 -0.0182059)
(-0.0143441 0.0300655 0.00903711)
(0.000391056 -0.00130701 0.00904063)
(-0.000393456 -0.00130713 0.00904058)
(0.0279787 0.0279816 0.00904339)
(0.0212347 0.00367981 0.00961923)
(0.00829211 0.00153659 -0.0172485)
(0.00123904 0.00244103 -0.0159433)
(-0.00603283 0.0244602 0.00964954)
(-0.000562658 0.0375534 0.00905183)
(0.000623798 0.0367888 0.0090064)
(0.00368928 0.0212359 0.00961611)
(0.0108434 0.0108241 0.0101293)
(0.00264076 0.0029301 -0.0161377)
(-0.00114839 0.0209235 -0.0148945)
(-9.47818e-05 0.0208545 -0.0152221)
(0.00154814 0.00827568 -0.017244)
(-6.76965e-05 -0.000344639 -0.0137221)
(-0.00343315 -0.00350649 -0.0169015)
(-0.0106735 -0.0154134 0.0102552)
(0.000704134 -0.0161136 0.00972183)
(0.0154027 -0.0106574 -0.0182013)
(0.00253305 0.00120592 -0.0161825)
(-0.00350663 -0.00347196 -0.017061)
(-0.0160938 -0.0160828 0.00896361)
(0.000391889 0.00130744 0.00904172)
(-0.000392739 0.00130784 0.00904086)
(0.0300642 -0.0143443 0.00903724)
(0.0244565 -0.00604719 0.00963423)
(0.00295637 0.00267597 -0.0161411)
(-0.0154196 -0.0106817 0.010252)
(0.00130537 0.000392238 0.00904038)
(-0.00129676 -0.00129589 0.00905961)
(0.00129551 -0.00129594 0.0090597)
(-0.00130651 0.000392603 0.00904168)
(0.0375494 -0.000565196 0.00905216)
(0.0209018 -0.00118 -0.0148918)
(-0.00034377 -5.76824e-05 -0.0137177)
(-0.0161206 0.00069141 0.00972388)
(0.00130567 -0.000392787 0.00904168)
(-0.00129653 0.00129574 0.00905946)
(0.0012959 0.00129603 0.00905962)
(-0.00130723 -0.000392397 0.00904173)
(0.0368015 0.000631213 0.00900501)
(0.0209341 1.95288e-05 -0.0152059)
(-0.0106516 0.0153837 -0.0182107)
(-0.0143416 0.0300645 0.00903823)
(0.000392109 -0.00130764 0.00904079)
(-0.000392328 -0.00130677 0.00904194)
(0.0279834 0.0279811 0.00904425)
(0.0212429 0.00368483 0.00961622)
(0.00829086 0.00155647 -0.0172385)
(0.0012157 0.00243555 -0.0155312)
(-0.00603416 0.0244803 0.00962318)
(-0.000567254 0.0375565 0.00905106)
(0.000628281 0.0367965 0.00900547)
(0.0036886 0.0212332 0.00961949)
(0.0108725 0.0108012 0.010135)
(0.00262938 0.00292971 -0.0161244)
(-0.00117155 0.0209028 -0.014888)
(-2.84169e-05 0.0208933 -0.0152168)
(0.00154127 0.0082824 -0.0172427)
(-6.803e-05 -0.000344688 -0.0137223)
(-0.00340981 -0.00349813 -0.0169993)
(-0.0106748 -0.0154157 0.0102552)
(0.000701834 -0.0161135 0.00972268)
(0.0153992 -0.0106537 -0.0182049)
(0.00248281 0.00122416 -0.016118)
(-0.00353074 -0.00346486 -0.0169694)
(-0.0160905 -0.016082 0.00896321)
(0.0003929 0.00130561 0.00904187)
(-0.000391656 0.00130582 0.00904155)
(0.0300655 -0.014344 0.00903852)
(0.0244643 -0.00603741 0.00962742)
(0.00294294 0.00265307 -0.0161341)
(-0.015417 -0.0106778 0.0102502)
(0.00130755 0.000392331 0.00904086)
(-0.00129547 -0.00129605 0.00905968)
(0.00129608 -0.00129581 0.00905962)
(-0.00130686 0.000392331 0.00904109)
(0.0375502 -0.000564352 0.00905283)
(0.0209176 -0.00116531 -0.0148926)
(-0.000343602 -5.66153e-05 -0.0137185)
(-0.0161197 0.000694453 0.00972148)
(0.00130732 -0.000392414 0.00904186)
(-0.00129544 0.00129557 0.00905954)
(0.00129594 0.00129565 0.0090595)
(-0.00130636 -0.000391921 0.00904102)
(0.0368052 0.00063151 0.00900404)
(0.0208927 -3.65894e-05 -0.0152515)
(-0.0106495 0.015377 -0.018209)
(-0.0143414 0.0300644 0.00903676)
(0.000392012 -0.00130633 0.00904112)
(-0.000392296 -0.0013063 0.00904128)
(0.0279834 0.0279814 0.00904422)
(0.0212448 0.00368504 0.00961562)
(0.00828319 0.00156377 -0.0172326)
(0.00122585 0.0024086 -0.0156012)
(-0.00603759 0.0244769 0.00963355)
(-0.000566718 0.0375553 0.00905132)
(0.000627798 0.0367949 0.00900504)
(0.00368664 0.0212319 0.00961928)
(0.0108753 0.0107991 0.0101345)
(0.00261111 0.00291834 -0.0161263)
(-0.00117845 0.0209105 -0.0148924)
(-3.27919e-05 0.0208933 -0.0152215)
(0.00154052 0.00828258 -0.0172432)
(-7.04646e-05 -0.000345866 -0.0137238)
(-0.00345399 -0.0035035 -0.0169881)
(-0.0106776 -0.0154177 0.0102535)
(0.000698878 -0.0161141 0.00972006)
(0.0153735 -0.0106582 -0.0182108)
(0.00240562 0.00117985 -0.0158439)
(-0.00352116 -0.00342278 -0.0169774)
(-0.0160879 -0.0160859 0.00896294)
(0.000392183 0.00130551 0.00904152)
(-0.000392081 0.00130644 0.00904086)
(0.0300655 -0.0143403 0.00903607)
(0.0244745 -0.00604083 0.00962207)
(0.00292774 0.00262914 -0.0161366)
(-0.0154176 -0.0106761 0.0102489)
(0.00130666 0.000392262 0.00904023)
(-0.00129501 -0.00129545 0.00905957)
(0.00129559 -0.00129519 0.00905935)
(-0.00130556 0.000391571 0.00904126)
(0.0375524 -0.000566749 0.00905108)
(0.0209244 -0.00117383 -0.0148927)
(-0.000342678 -5.45341e-05 -0.0137157)
(-0.0161205 0.000698843 0.00972205)
(0.00130622 -0.000391684 0.00904147)
(-0.00129544 0.00129522 0.00905955)
(0.00129484 0.00129546 0.00905939)
(-0.00130691 -0.000392721 0.00904133)
(0.0367988 0.000624697 0.00900447)
(0.0208715 -7.16212e-05 -0.0152296)
(-0.0106502 0.0153961 -0.0182071)
(-0.0143471 0.0300636 0.00903684)
(0.000392132 -0.00130568 0.00904094)
(-0.000392333 -0.00130513 0.00904144)
(0.0279779 0.0279841 0.00904392)
(0.0212331 0.00368194 0.00961792)
(0.00828149 0.00153799 -0.0172352)
(0.00120877 0.00253735 -0.0159074)
(-0.00603962 0.0244548 0.00964026)
(-0.000563291 0.0375487 0.00905094)
(0.000630454 0.0367948 0.00900496)
(0.00368816 0.0212403 0.00961721)
(0.0108359 0.010833 0.0101304)
(0.00266975 0.00295112 -0.0161427)
(-0.00116111 0.0209048 -0.0148964)
(-2.54248e-05 0.0208924 -0.0152222)
(0.00155792 0.00828092 -0.017243)
(-7.03567e-05 -0.00034564 -0.0137244)
(-0.00346829 -0.00350434 -0.0170614)
(-0.0106793 -0.0154201 0.0102536)
(0.000694992 -0.0161136 0.00972205)
(0.0153769 -0.0106475 -0.0182099)
(0.00234831 0.00125471 -0.0155428)
(-0.00350829 -0.00343639 -0.016902)
(-0.0160833 -0.016092 0.00896343)
(0.000391646 0.00130515 0.00904191)
(-0.00039295 0.0013064 0.0090419)
(0.030067 -0.0143382 0.00903689)
(0.0244844 -0.00603086 0.00962589)
(0.00290581 0.00259089 -0.0161254)
(-0.0154137 -0.0106774 0.0102536)
(0.00130638 0.000392421 0.00904126)
(-0.00129484 -0.00129535 0.00905927)
(0.00129506 -0.00129504 0.00905933)
(-0.0013051 0.000391347 0.00904103)
(0.0375526 -0.000567993 0.00904963)
(0.0209105 -0.00118624 -0.0148927)
(-0.000343295 -5.61646e-05 -0.0137171)
(-0.0161192 0.000698004 0.00972376)
(0.00130539 -0.000391512 0.00904153)
(-0.00129511 0.00129512 0.00905929)
(0.0012948 0.00129519 0.00905927)
(-0.00130655 -0.000392466 0.00904163)
(0.0368019 0.000626696 0.00900443)
(0.0209152 -2.56546e-05 -0.0152235)
(-0.0106515 0.0153808 -0.0182074)
(-0.0143443 0.0300635 0.00903591)
(0.00039239 -0.00130623 0.0090412)
(-0.000391682 -0.00130492 0.00904136)
(0.0279784 0.0279847 0.00904248)
(0.0212277 0.00367879 0.0096212)
(0.00828598 0.00152961 -0.0172425)
(0.00123574 0.00243563 -0.0161884)
(-0.00604014 0.0244609 0.00964165)
(-0.000564503 0.0375529 0.00905067)
(0.000630124 0.0367981 0.00900333)
(0.00368962 0.0212474 0.00961351)
(0.0108151 0.0108507 0.0101317)
(0.00264655 0.00293663 -0.0161485)
(-0.00117422 0.0209112 -0.0148992)
(-2.61904e-05 0.0208937 -0.015223)
(0.00156472 0.0082822 -0.0172397)
(-6.76053e-05 -0.000344531 -0.0137258)
(-0.00346096 -0.00352944 -0.0169687)
(-0.0106751 -0.0154203 0.0102503)
(0.000700541 -0.0161147 0.00971979)
(0.0153924 -0.0106483 -0.0182152)
(0.00247017 0.00123324 -0.015886)
(-0.00349973 -0.00341251 -0.0170023)
(-0.0160815 -0.0160905 0.00896257)
(0.000392195 0.00130508 0.00904143)
(-0.000392069 0.00130504 0.00904128)
(0.0300673 -0.0143429 0.0090349)
(0.0244647 -0.00603065 0.00963385)
(0.00293578 0.00264616 -0.0161182)
(-0.0154161 -0.0106786 0.0102494)
(0.00130589 0.000392033 0.00904128)
(-0.00129407 -0.00129471 0.00905919)
(0.00129471 -0.00129502 0.00905939)
(-0.00130497 0.000391374 0.00904122)
(0.0375477 -0.000562783 0.00904959)
(0.0209064 -0.00116868 -0.0148976)
(-0.000343774 -5.73492e-05 -0.0137191)
(-0.0161197 0.000694821 0.00972088)
(0.00130676 -0.000391591 0.00904155)
(-0.00129455 0.00129459 0.00905923)
(0.00129462 0.00129435 0.00905921)
(-0.00130648 -0.000392446 0.00904206)
(0.0368024 0.000632034 0.00900354)
(0.0209156 -1.72159e-05 -0.0152224)
(-0.0106608 0.0153798 -0.018217)
(-0.0143421 0.0300608 0.00903668)
(0.000391988 -0.00130424 0.00904095)
(-0.000392188 -0.00130482 0.00904116)
(0.0279814 0.027982 0.00904109)
(0.0212394 0.00368698 0.00961565)
(0.00828067 0.0015566 -0.0172429)
(0.00115192 0.00248959 -0.0158359)
(-0.00604545 0.0244706 0.00961357)
(-0.000567055 0.0375522 0.00904852)
(0.000626901 0.0367952 0.00900361)
(0.00368337 0.0212357 0.00961673)
(0.0108318 0.0108376 0.0101268)
(0.00266797 0.0029526 -0.0161439)
(-0.00117686 0.0209072 -0.0149002)
(-3.32752e-05 0.0208911 -0.0152234)
(0.00153766 0.00828638 -0.0172386)
(-6.7809e-05 -0.000344683 -0.0137236)
(-0.0034332 -0.00350647 -0.0169024)
(-0.0106742 -0.0154157 0.0102516)
(0.000704161 -0.0161145 0.00971945)
(0.015398 -0.0106566 -0.0182097)
(0.00253127 0.00119727 -0.0161723)
(-0.00350655 -0.00347044 -0.0170583)
(-0.01609 -0.0160854 0.00896363)
(0.000392186 0.00130532 0.00904205)
(-0.000391855 0.00130603 0.00904158)
(0.0300652 -0.014345 0.00903567)
(0.0244543 -0.00604198 0.00962841)
(0.00295466 0.00267063 -0.016143)
(-0.0154205 -0.0106815 0.0102484)
(0.00130499 0.000392278 0.00904124)
(-0.00129462 -0.00129444 0.00905974)