/*--------------------------------*- C++ -*----------------------------------*\
| =========                 |                                                 |
| \\      /  F ield         | OpenFOAM: The Open Source CFD Toolbox           |
|  \\    /   O peration     | Version:  v1906                                 |
|   \\  /    A nd           | Web:      www.OpenFOAM.com                      |
|    \\/     M anipulation  |                                                 |
\*---------------------------------------------------------------------------*/
FoamFile
{
    version     2.0;
    format      ascii;
    class       volScalarField;
    location    "0.1";
    object      p;
}
// * * * * * * * * * * * * * * * * * * * * * * * * * * * * * * * * * * * * * //

dimensions      [0 2 -2 0 0 0 0];


internalField   nonuniform List<scalar> 
118248
(
3.22876e-08
-0.00022835
-0.000869732
-0.000274946
-1.07e-05
-0.000248891
-0.000226882
0.000136156
-0.000382755
-0.000239739
-7.08902e-05
-0.000582356
-0.00052659
-0.000901488
-0.000394715
-0.000696488
-0.000719847
-0.000562195
-0.000271356
0.000898128
5.26412e-05
-0.000344469
-0.000241045
-0.000720783
-0.000828558
-0.000522379
-1.97362e-05
0.000378224
6.02552e-07
-7.61746e-05
-0.000564002
-0.000521727
-0.000115866
-0.000213929
-1.35037e-05
-0.000183781
-0.000612144
-0.000282646
-2.72904e-05
-0.000218645
-0.000786427
-0.000521494
0.000892069
0.00037503
-3.25586e-05
0.00895647
0.00787762
0.00540351
0.00505415
0.00728021
0.00771138
0.0078889
0.00613023
0.00550335
0.00550337
0.00330455
0.00424149
0.00785409
0.00540144
0.0055028
0.00599713
0.00599647
0.00550092
0.00173139
0.00763434
0.00894554
0.0050474
0.0055029
0.00599557
0.00599501
0.00550194
0.00126208
0.00749953
0.0072823
0.00330554
0.00550174
0.00550091
0.000674153
0.00312433
0.00770223
0.00769101
0.00424054
0.00173478
0.00126401
0.00312562
0.00461795
0.00786969
0.0076458
0.00750595
0.00769718
0.0158144
0.0143502
0.0117257
0.0113725
0.0137069
0.0141006
0.0143505
0.0126673
0.0118994
0.0118992
0.0100883
0.0105647
0.0143232
0.0117268
0.0119002
0.012553
0.0125528
0.0118993
0.00868784
0.0141281
0.015806
0.011374
0.0118999
0.0125516
0.0125515
0.011899
0.00831071
0.0140205
0.0137122
0.0100889
0.0118992
0.011899
0.00793067
0.00963878
0.0141756
0.0141212
0.0105652
0.00868927
0.00831208
0.00964104
0.0109313
0.0143198
0.0141315
0.0140241
0.0141781
0.0219447
0.0204618
0.0178729
0.0175249
0.0198254
0.0202128
0.0204638
0.0188889
0.0181265
0.0181266
0.0162678
0.0166837
0.0204428
0.0178752
0.0181268
0.0187946
0.0187945
0.0181273
0.014849
0.0202575
0.0219349
0.017526
0.0181266
0.0187941
0.0187924
0.0181285
0.0145016
0.0201582
0.0198269
0.0162668
0.0181269
0.0181266
0.0140741
0.0157588
0.0202974
0.0202318
0.0166845
0.014849
0.0145012
0.0157575
0.0170354
0.0204378
0.0202586
0.0201562
0.0202948
0.0281223
0.026644
0.0240511
0.0237026
0.0259979
0.0263872
0.0266295
0.0250747
0.0243127
0.0243126
0.0224424
0.0228558
0.0266185
0.0240514
0.0243124
0.0249852
0.0249855
0.0243126
0.0210263
0.0264344
0.0281114
0.0237033
0.0243124
0.024985
0.024985
0.0243126
0.0206824
0.0263379
0.0260013
0.0224414
0.0243123
0.0243127
0.0202395
0.0219299
0.0264716
0.0263988
0.0228553
0.0210262
0.0206806
0.0219283
0.0232058
0.026608
0.0264326
0.0263322
0.0264666
0.0343045
0.0328231
0.0302342
0.029885
0.032179
0.0325684
0.0328118
0.0312578
0.030496
0.030496
0.0286236
0.0290381
0.032798
0.0302339
0.0304959
0.0311697
0.0311698
0.0304967
0.027209
0.0326182
0.0342939
0.0298864
0.0304958
0.0311696
0.0311697
0.0304959
0.026865
0.0325187
0.0321844
0.0286229
0.0304958
0.030496
0.0264196
0.0281112
0.0326513
0.0325801
0.0290353
0.0272079
0.0268639
0.0281109
0.0293884
0.0327896
0.032615
0.0325169
0.0326543
0.040489
0.0390057
0.0364182
0.0360687
0.0383654
0.0387646
0.0389952
0.0374409
0.0366788
0.0366787
0.0348055
0.0352192
0.0389777
0.036416
0.036679
0.0373531
0.0373532
0.036679
0.0333914
0.0387974
0.0404761
0.0360684
0.0366792
0.0373532
0.0373532
0.0366789
0.0330478
0.0386939
0.0383632
0.0348063
0.0366794
0.03668
0.0326024
0.034294
0.0388349
0.0387513
0.035222
0.0333927
0.033048
0.0342948
0.0355728
0.0389825
0.0388025
0.0387017
0.0388385
0.04667
0.0451816
0.0425993
0.0422505
0.0445471
0.0449476
0.0451879
0.0436233
0.0428613
0.0428613
0.0409876
0.041403
0.0451608
0.0426
0.0428618
0.0435357
0.0435358
0.0428614
0.0395742
0.0449814
0.0466601
0.0422517
0.0428616
0.0435359
0.0435357
0.0428615
0.0392303
0.0448844
0.044547
0.0409893
0.0428616
0.0428616
0.038785
0.0404759
0.0450192
0.0449316
0.0414026
0.0395751
0.0392313
0.0404776
0.0417539
0.0451594
0.0449829
0.0448877
0.045017
0.0528543
0.0513651
0.0487827
0.0484346
0.0507332
0.0511316
0.0513711
0.0498067
0.0490448
0.0490449
0.0471718
0.0475844
0.0513421
0.0487833
0.0490451
0.0497191
0.0497191
0.0490452
0.0457566
0.051164
0.052843
0.0484343
0.0490449
0.049719
0.049719
0.0490448
0.0454137
0.0510678
0.0507292
0.047172
0.0490449
0.0490448
0.0449684
0.0466604
0.0512042
0.0511177
0.0475882
0.0457594
0.0454139
0.0466601
0.0479379
0.0513459
0.0511683
0.0510661
0.0511999
0.0590372
0.0575508
0.0549659
0.0546174
0.0569129
0.0573002
0.0575509
0.0559906
0.0552283
0.0552283
0.0533562
0.0537704
0.0575317
0.0549675
0.0552285
0.0559025
0.0559025
0.0552287
0.051942
0.057349
0.0590274
0.0546188
0.0552285
0.0559025
0.0559025
0.0552284
0.0515975
0.0572444
0.0569169
0.0533551
0.0552283
0.0552283
0.0511517
0.0528443
0.0573862
0.0573209
0.05377
0.0519417
0.0515969
0.0528428
0.0541206
0.0575226
0.0573496
0.0572498
0.0573852
0.0652205
0.0637378
0.0611498
0.0608005
0.0630961
0.0634826
0.063732
0.0621731
0.0614114
0.0614113
0.0595393
0.0599534
0.0637133
0.0611496
0.0614114
0.0620856
0.0620855
0.0614111
0.0581245
0.0635325
0.06521
0.0608017
0.0614113
0.0620856
0.0620856
0.0614116
0.057781
0.0634391
0.0630997
0.059538
0.0614114
0.0614115
0.0573349
0.059027
0.0635672
0.0635006
0.0599527
0.0581246
0.0577801
0.0590264
0.0603039
0.063708
0.0635322
0.0634331
0.0635697
0.0714044
0.0699209
0.0673329
0.0669842
0.0692797
0.0696689
0.0699129
0.0683568
0.0675949
0.0675949
0.0657224
0.066136
0.0698994
0.0673334
0.0675952
0.0682692
0.0682693
0.0675954
0.0643071
0.0697167
0.0713935
0.0669851
0.0675952
0.0682692
0.0682692
0.0675948
0.063964
0.069618
0.0692835
0.0657221
0.0675951
0.0675954
0.0635187
0.0652104
0.0697514
0.069685
0.0661373
0.064309
0.063964
0.0652105
0.0664887
0.0698892
0.0697168
0.0696172
0.0697542
0.0775871
0.076106
0.0735166
0.0731674
0.075462
0.0758519
0.0760967
0.0745409
0.0737786
0.0737784
0.0719061
0.0723204
0.0760844
0.0735178
0.0737789
0.0744528
0.0744529
0.0737792
0.0704911
0.0759023
0.0775784
0.0731699
0.0737789
0.0744529
0.0744529
0.0737785
0.0701476
0.0757974
0.0754684
0.071906
0.0737788
0.0737793
0.0697029
0.071394
0.0759339
0.0758719
0.0723185
0.0704906
0.070148
0.071395
0.0726727
0.0760725
0.0758982
0.0758098
0.0759386
0.0837697
0.0822858
0.0796982
0.0793499
0.081647
0.0820466
0.0822819
0.0807223
0.0799609
0.0799609
0.0780881
0.0785018
0.0822615
0.0796997
0.0799613
0.0806354
0.0806354
0.0799615
0.0766739
0.0820832
0.0837599
0.079351
0.0799615
0.0806355
0.0806355
0.0799613
0.0763298
0.0819775
0.0816458
0.0780893
0.0799617
0.0799617
0.0758849
0.0775765
0.0821179
0.0820354
0.0785048
0.0766758
0.0763304
0.0775767
0.0788536
0.0822633
0.0820859
0.0819836
0.0821179
0.0899545
0.088475
0.0858826
0.0855334
0.0878306
0.0882287
0.0884591
0.0869057
0.0861439
0.086144
0.084271
0.0846858
0.0884411
0.0858815
0.0861438
0.0868179
0.0868179
0.0861436
0.0828572
0.0882633
0.0899414
0.0855335
0.0861436
0.0868179
0.0868179
0.0861439
0.0825127
0.0881684
0.0878289
0.0842713
0.086144
0.0861438
0.0820673
0.0837585
0.088301
0.0882147
0.0846839
0.0828566
0.0825124
0.0837593
0.0850361
0.0884419
0.0882663
0.0881658
0.0883004
0.0961371
0.0946546
0.0920655
0.0917162
0.094013
0.0944008
0.0946456
0.0930885
0.092327
0.092327
0.0904541
0.0908683
0.0946286
0.0920642
0.0923268
0.093001
0.093001
0.0923265
0.0890394
0.0944476
0.0961243
0.091716
0.0923266
0.093001
0.093001
0.0923272
0.0886959
0.0943549
0.0940125
0.090454
0.092327
0.092327
0.0882508
0.089942
0.0944834
0.0944173
0.0908695
0.0890407
0.0886963
0.089943
0.0912206
0.094626
0.0944506
0.0943502
0.0944862
0.102319
0.100831
0.0982486
0.0978988
0.100196
0.100581
0.100835
0.0992708
0.0985097
0.0985097
0.0966378
0.0970516
0.100809
0.0982471
0.0985098
0.0991839
0.0991839
0.0985099
0.0952235
0.100632
0.102308
0.0979004
0.0985098
0.099184
0.099184
0.0985099
0.0948792
0.100534
0.100198
0.0966374
0.09851
0.0985101
0.0944339
0.0961257
0.100668
0.100597
0.0970492
0.0952217
0.0948784
0.0961252
0.0974025
0.100808
0.100631
0.100532
0.100668
0.108503
0.107008
0.104431
0.104082
0.106382
0.106785
0.107025
0.105455
0.104693
0.104693
0.102821
0.103235
0.106988
0.104432
0.104693
0.105367
0.105367
0.104693
0.101406
0.106813
0.108492
0.104083
0.104693
0.105367
0.105367
0.104693
0.101062
0.106717
0.106377
0.102821
0.104693
0.104693
0.100617
0.102309
0.106853
0.106768
0.103237
0.101407
0.101063
0.102309
0.103587
0.107
0.106819
0.106716
0.10685
0.114686
0.1132
0.110614
0.110265
0.112564
0.112964
0.113198
0.111637
0.110876
0.110876
0.109003
0.109418
0.113175
0.110615
0.110876
0.11155
0.11155
0.110876
0.10759
0.112997
0.114676
0.110267
0.110876
0.11155
0.11155
0.110876
0.107245
0.112891
0.112565
0.109004
0.110876
0.110876
0.1068
0.108491
0.113034
0.112966
0.109417
0.107589
0.107245
0.108491
0.109768
0.113171
0.112998
0.112898
0.113032
0.12087
0.119385
0.116797
0.116449
0.118748
0.119147
0.119379
0.11782
0.117059
0.117059
0.115187
0.115599
0.119357
0.116797
0.117059
0.117733
0.117733
0.117059
0.113771
0.119179
0.120858
0.116449
0.117059
0.117733
0.117733
0.117059
0.113428
0.119083
0.118744
0.115188
0.117059
0.117059
0.112983
0.114674
0.119216
0.119131
0.115601
0.113773
0.113428
0.114675
0.115953
0.119362
0.119184
0.119083
0.119219
0.12705
0.125563
0.12298
0.12263
0.124926
0.125316
0.125563
0.124002
0.123241
0.123242
0.12137
0.121785
0.125544
0.122979
0.123242
0.123916
0.123916
0.123242
0.119956
0.125365
0.127041
0.122632
0.123241
0.123916
0.123916
0.123242
0.119612
0.125264
0.124929
0.121369
0.123242
0.123242
0.119166
0.120858
0.125399
0.125328
0.121782
0.119954
0.11961
0.120857
0.122135
0.125541
0.125363
0.125264
0.1254
0.133236
0.131751
0.129162
0.128814
0.131115
0.13151
0.131745
0.130186
0.129425
0.129425
0.127552
0.127964
0.131719
0.129164
0.129425
0.130099
0.130099
0.129425
0.126137
0.131545
0.133224
0.128815
0.129425
0.130099
0.130099
0.129425
0.125794
0.131443
0.131111
0.127553
0.129425
0.129424
0.125349
0.127041
0.131582
0.131515
0.127966
0.126137
0.125793
0.127039
0.128317
0.131725
0.131548
0.131448
0.131582
0.13942
0.137941
0.135347
0.134998
0.137295
0.137681
0.137924
0.136369
0.135608
0.135608
0.133737
0.13415
0.137912
0.135346
0.135608
0.136282
0.136282
0.135609
0.132321
0.137731
0.139406
0.134997
0.135608
0.136282
0.136282
0.135609
0.131978
0.137634
0.137292
0.133736
0.135608
0.135608
0.131533
0.133225
0.137767
0.137683
0.134151
0.132322
0.131977
0.133224
0.134502
0.137914
0.137734
0.137632
0.137767
0.145602
0.144121
0.14153
0.14118
0.143477
0.143864
0.144109
0.142553
0.141792
0.141792
0.13992
0.140335
0.144094
0.14153
0.141792
0.142466
0.142466
0.141792
0.138506
0.143913
0.145591
0.141182
0.141792
0.142466
0.142466
0.141791
0.138161
0.143814
0.14348
0.13992
0.141792
0.141792
0.137716
0.139408
0.14395
0.143885
0.140332
0.138504
0.13816
0.139407
0.140685
0.144088
0.143915
0.143815
0.143951
0.151786
0.150302
0.147714
0.147365
0.149663
0.150066
0.150293
0.148736
0.147975
0.147975
0.146103
0.146516
0.150274
0.147713
0.147975
0.148649
0.148649
0.147975
0.144688
0.150098
0.151773
0.147364
0.147975
0.148649
0.148649
0.147975
0.144344
0.149997
0.14966
0.146104
0.147975
0.147975
0.1439
0.145591
0.15013
0.150049
0.146518
0.144689
0.144345
0.145591
0.146868
0.150277
0.150101
0.15
0.150135
0.157969
0.156482
0.153897
0.153547
0.155846
0.156249
0.15648
0.154919
0.154158
0.154158
0.152286
0.152699
0.156457
0.153896
0.154158
0.154832
0.154832
0.154157
0.15087
0.15628
0.157958
0.153548
0.154158
0.154832
0.154832
0.154158
0.150527
0.156188
0.155846
0.152286
0.154158
0.154158
0.150083
0.151773
0.156317
0.156232
0.152699
0.150871
0.150527
0.151774
0.153051
0.156458
0.156282
0.156182
0.156317
0.164151
0.162661
0.160079
0.159729
0.162026
0.162416
0.162667
0.161101
0.16034
0.16034
0.158469
0.158884
0.162647
0.160078
0.160341
0.161015
0.161015
0.160341
0.157054
0.162466
0.16414
0.15973
0.160341
0.161015
0.161015
0.160341
0.156711
0.162368
0.162027
0.158469
0.160341
0.160341
0.156266
0.157957
0.162499
0.162413
0.158883
0.157055
0.156711
0.157958
0.159234
0.16264
0.162466
0.162365
0.1625
0.170335
0.16885
0.166261
0.165913
0.168213
0.168612
0.168846
0.167285
0.166524
0.166524
0.164652
0.165064
0.168823
0.166263
0.166524
0.167198
0.167198
0.166524
0.163236
0.168646
0.170325
0.165914
0.166524
0.167198
0.167198
0.166524
0.162893
0.16855
0.168215
0.164652
0.166524
0.166524
0.162449
0.164141
0.168684
0.168615
0.165066
0.163237
0.162893
0.164139
0.165417
0.168818
0.168647
0.168547
0.168682
0.176518
0.175033
0.172446
0.172096
0.174393
0.17478
0.17503
0.173468
0.172707
0.172707
0.170837
0.17125
0.175012
0.172445
0.172707
0.173381
0.173381
0.172707
0.169421
0.174833
0.176508
0.172097
0.172707
0.173381
0.173381
0.172707
0.169077
0.174734
0.174398
0.170835
0.172707
0.172708
0.168633
0.170323
0.174866
0.174794
0.171249
0.16942
0.169076
0.170323
0.171602
0.175002
0.17483
0.174731
0.174868
0.182702
0.181223
0.178629
0.17828
0.180577
0.180967
0.181208
0.179651
0.178891
0.178891
0.17702
0.177434
0.181197
0.178629
0.178891
0.179565
0.179565
0.178891
0.175604
0.181016
0.182692
0.178281
0.178891
0.179565
0.179565
0.17889
0.17526
0.180917
0.180582
0.177019
0.17889
0.17889
0.174816
0.176507
0.181051
0.180982
0.177432
0.175604
0.175259
0.176506
0.177783
0.181185
0.181014
0.180914
0.181048
0.188886
0.187407
0.184812
0.184463
0.186761
0.187148
0.187391
0.185835
0.185074
0.185074
0.183204
0.183615
0.187379
0.184812
0.185074
0.185748
0.185748
0.185074
0.181786
0.187199
0.188874
0.184464
0.185074
0.185748
0.185748
0.185074
0.181444
0.187101
0.186763
0.183203
0.185074
0.185074
0.181
0.18269
0.187232
0.18715
0.183616
0.181787
0.181443
0.18269
0.183969
0.187374
0.187199
0.187099
0.187236
0.195069
0.193591
0.190996
0.190647
0.192943
0.193333
0.193574
0.192018
0.191258
0.191257
0.189387
0.189799
0.193565
0.190996
0.191258
0.191932
0.191932
0.191258
0.18797
0.193383
0.195058
0.190647
0.191258
0.191932
0.191932
0.191258
0.187627
0.193286
0.192949
0.189386
0.191258
0.191258
0.187183
0.188874
0.193415
0.193349
0.1898
0.187972
0.187627
0.188874
0.190152
0.193553
0.193382
0.193284
0.19342
0.201253
0.199775
0.197179
0.19683
0.199127
0.199516
0.199758
0.198201
0.197441
0.197441
0.195571
0.195983
0.199749
0.197179
0.197441
0.198115
0.198115
0.197441
0.194153
0.199567
0.201242
0.196831
0.197441
0.198115
0.198115
0.197441
0.193811
0.19947
0.199133
0.19557
0.197441
0.197441
0.193368
0.195058
0.1996
0.199533
0.195983
0.194155
0.193811
0.195059
0.196336
0.199736
0.199566
0.199467
0.199603
0.207437
0.205958
0.203363
0.203014
0.205311
0.2057
0.205942
0.204385
0.203625
0.203625
0.201755
0.202167
0.205933
0.203363
0.203625
0.204299
0.204299
0.203625
0.200337
0.205752
0.207426
0.203014
0.203625
0.204299
0.204299
0.203625
0.199995
0.205654
0.205317
0.201754
0.203624
0.203625
0.199551
0.201242
0.205785
0.205717
0.202167
0.200338
0.199994
0.201241
0.202518
0.205919
0.205749
0.20565
0.205784
0.21362
0.212139
0.209547
0.209197
0.211495
0.211884
0.212128
0.210569
0.209808
0.209808
0.207939
0.20835
0.212117
0.209547
0.209808
0.210482
0.210482
0.209808
0.20652
0.211935
0.21361
0.209198
0.209808
0.210482
0.210482
0.209809
0.206178
0.211841
0.211501
0.207937
0.209808
0.209808
0.205735
0.207425
0.211968
0.211901
0.20835
0.206522
0.206177
0.207425
0.208703
0.212103
0.211933
0.211834
0.21197
0.219803
0.218322
0.215731
0.215381
0.217678
0.218067
0.218312
0.216752
0.215992
0.215992
0.214122
0.214534
0.2183
0.21573
0.215992
0.216666
0.216666
0.215992
0.212705
0.218119
0.219794
0.215382
0.215992
0.216666
0.216666
0.215992
0.212361
0.21802
0.217684
0.214121
0.215992
0.215992
0.211919
0.213608
0.218151
0.218084
0.214534
0.212705
0.212361
0.213609
0.214887
0.218287
0.218117
0.218018
0.218154
0.225986
0.224503
0.221912
0.221563
0.223861
0.224248
0.224498
0.222935
0.222175
0.222175
0.220305
0.220718
0.22448
0.221915
0.222175
0.222849
0.222849
0.222175
0.218888
0.224301
0.225978
0.221566
0.222175
0.222849
0.222849
0.222174
0.218545
0.2242
0.223868
0.220305
0.222175
0.222175
0.218101
0.219792
0.224333
0.224263
0.220715
0.218887
0.218543
0.219791
0.22107
0.224471
0.224299
0.224195
0.224337
0.232172
0.230692
0.228096
0.227747
0.230047
0.230433
0.230676
0.229117
0.228358
0.228358
0.226489
0.226901
0.230664
0.228096
0.228358
0.229032
0.229032
0.228358
0.225071
0.230486
0.232159
0.227747
0.228358
0.229032
0.229032
0.228358
0.224728
0.230385
0.230045
0.226488
0.228358
0.228358
0.224285
0.225976
0.230517
0.230433
0.226902
0.225072
0.224728
0.225975
0.227253
0.230663
0.230487
0.230386
0.230521
0.238355
0.236872
0.23428
0.23393
0.23623
0.236617
0.236861
0.235301
0.234541
0.234541
0.232672
0.233083
0.236846
0.23428
0.234541
0.235215
0.235215
0.234541
0.231254
0.236667
0.238343
0.233932
0.234541
0.235215
0.235216
0.234542
0.230911
0.23657
0.236234
0.232672
0.234542
0.234542
0.230468
0.232158
0.236702
0.236637
0.233082
0.231254
0.23091
0.232158
0.233436
0.236839
0.236667
0.236568
0.236704
0.244537
0.243058
0.240462
0.240113
0.242412
0.2428
0.243042
0.241483
0.240724
0.240724
0.238855
0.239267
0.24303
0.240462
0.240724
0.241398
0.241398
0.240725
0.237438
0.242849
0.244525
0.240113
0.240724
0.241398
0.241399
0.240724
0.237094
0.242749
0.242411
0.238855
0.240725
0.240725
0.236652
0.238341
0.242883
0.242798
0.239268
0.237439
0.237094
0.238342
0.239619
0.243031
0.242854
0.242753
0.242888
0.250722
0.249239
0.246646
0.246297
0.2486
0.249003
0.249227
0.247667
0.246908
0.246908
0.245039
0.245449
0.249207
0.246646
0.246908
0.247582
0.247582
0.246908
0.24362
0.249034
0.250709
0.246297
0.246908
0.247582
0.247582
0.246907
0.243277
0.248937
0.248599
0.245038
0.246908
0.246908
0.242835
0.244524
0.249068
0.249002
0.245451
0.243622
0.243278
0.244526
0.245804
0.249207
0.249035
0.248936
0.249072
0.256905
0.255425
0.252829
0.25248
0.25478
0.255166
0.25541
0.25385
0.253091
0.253091
0.251223
0.251634
0.255397
0.25283
0.253091
0.253765
0.253765
0.253091
0.249805
0.255219
0.256894
0.252481
0.253091
0.253765
0.253765
0.25309
0.24946
0.255111
0.254784
0.251222
0.253091
0.25309
0.249018
0.250708
0.255251
0.255184
0.251633
0.249804
0.249459
0.250707
0.251985
0.255387
0.255217
0.255119
0.255253
0.263089
0.261609
0.259013
0.258664
0.260963
0.261351
0.261593
0.260033
0.259274
0.259274
0.257406
0.257816
0.261581
0.259012
0.259274
0.259948
0.259948
0.259274
0.255986
0.261399
0.263077
0.258664
0.259274
0.259948
0.259948
0.259274
0.255643
0.2613
0.260965
0.257405
0.259274
0.259274
0.255202
0.256891
0.261434
0.261351
0.257816
0.255987
0.255643
0.256891
0.258169
0.261576
0.261402
0.261303
0.261438
0.26927
0.267788
0.265195
0.264845
0.267145
0.267535
0.26778
0.266216
0.265457
0.265457
0.263589
0.264001
0.267767
0.265196
0.265457
0.266131
0.266132
0.265458
0.262171
0.267587
0.269261
0.264848
0.265457
0.266131
0.266131
0.265457
0.261827
0.267488
0.267151
0.263589
0.265457
0.265457
0.261386
0.263075
0.267619
0.26755
0.263999
0.26217
0.261826
0.263075
0.264353
0.267755
0.267585
0.267486
0.267622
0.275456
0.273976
0.27138
0.27103
0.273333
0.273734
0.273959
0.272399
0.27164
0.27164
0.269772
0.270182
0.273941
0.271378
0.27164
0.272314
0.272314
0.27164
0.268353
0.273767
0.275442
0.271029
0.27164
0.272314
0.272314
0.27164
0.26801
0.273665
0.273329
0.269772
0.27164
0.27164
0.267569
0.269258
0.273799
0.273715
0.270183
0.268354
0.26801
0.269258
0.270535
0.273947
0.273771
0.273671
0.273805
0.281637
0.280151
0.277561
0.277212
0.279513
0.2799
0.28015
0.278582
0.277823
0.277823
0.275955
0.276364
0.28013
0.277563
0.277824
0.278498
0.278498
0.277823
0.274535
0.279952
0.281627
0.277213
0.277824
0.278498
0.278498
0.277823
0.274193
0.279854
0.279516
0.275955
0.277824
0.277824
0.273752
0.275441
0.279985
0.279919
0.276367
0.274538
0.274193
0.275442
0.27672
0.280124
0.279953
0.279854
0.279988
0.28782
0.286341
0.283745
0.283395
0.285695
0.286084
0.286327
0.284765
0.284007
0.284007
0.282139
0.282549
0.286317
0.283745
0.284007
0.284681
0.284681
0.284007
0.280719
0.286137
0.28781
0.283397
0.284007
0.284681
0.284681
0.284007
0.280376
0.286038
0.2857
0.282138
0.284007
0.284007
0.279935
0.281623
0.28617
0.286103
0.28255
0.280721
0.280377
0.281625
0.282901
0.286305
0.286135
0.286033
0.286169
0.294003
0.292521
0.289928
0.289578
0.291878
0.292266
0.29251
0.290947
0.290189
0.290189
0.288322
0.288733
0.292497
0.289927
0.290189
0.290863
0.290863
0.29019
0.286903
0.29232
0.293992
0.289579
0.290189
0.290863
0.290863
0.290189
0.286559
0.292217
0.291882
0.288321
0.290189
0.290189
0.286119
0.287808
0.292351
0.292279
0.288732
0.286902
0.286559
0.287807
0.289085
0.292488
0.292317
0.292218
0.292352
0.300187
0.298707
0.29611
0.295761
0.298064
0.298463
0.298692
0.29713
0.296372
0.296372
0.294504
0.294915
0.298677
0.296111
0.296372
0.297046
0.297046
0.296373
0.293085
0.2985
0.300176
0.295762
0.296372
0.297046
0.297046
0.296372
0.292742
0.298403
0.298065
0.294504
0.296372
0.296372
0.292301
0.29399
0.298535
0.298468
0.294915
0.293086
0.292741
0.29399
0.295268
0.298671
0.298502
0.298396
0.298536
0.306369
0.304891
0.302293
0.301944
0.304245
0.304629
0.304874
0.303313
0.302555
0.302555
0.300687
0.301095
0.304859
0.302293
0.302555
0.303229
0.303229
0.302555
0.299267
0.304685
0.306358
0.301945
0.302555
0.303229
0.303229
0.302555
0.298924
0.304583
0.304248
0.300687
0.302555
0.302555
0.298485
0.300172
0.304713
0.304652
0.301097
0.299268
0.298925
0.300174
0.301452
0.304855
0.304685
0.304586
0.304721
0.312553
0.311074
0.308476
0.308127
0.310427
0.310816
0.311057
0.309496
0.308738
0.308738
0.306871
0.307281
0.311048
0.308476
0.308738
0.309412
0.309412
0.308739
0.305451
0.310868
0.312541
0.308127
0.308738
0.309412
0.309412
0.308738
0.305107
0.310769
0.31043
0.30687
0.308738
0.308738
0.304667
0.306355
0.3109
0.310833
0.307282
0.305453
0.305109
0.306357
0.307634
0.311039
0.310868
0.310767
0.310903
0.318736
0.317257
0.31466
0.31431
0.31661
0.316998
0.317241
0.31568
0.314921
0.314922
0.313054
0.313466
0.317228
0.314659
0.314921
0.315595
0.315595
0.314921
0.311636
0.317052
0.318725
0.31431
0.314921
0.315595
0.315595
0.314921
0.311291
0.316948
0.316616
0.313053
0.314921
0.314921
0.31085
0.312538
0.317082
0.317015
0.313464
0.311635
0.311291
0.312539
0.313816
0.317219
0.31705
0.316951
0.317085
0.32492
0.323432
0.320843
0.320494
0.322797
0.323182
0.323432
0.321863
0.321104
0.321105
0.319237
0.319646
0.323408
0.320844
0.321104
0.321778
0.321778
0.321105
0.317817
0.323232
0.324909
0.320495
0.321104
0.321778
0.321778
0.321104
0.317474
0.323136
0.322799
0.319236
0.321104
0.321104
0.317033
0.318723
0.323269
0.323201
0.319645
0.317816
0.317473
0.318721
0.319999
0.323403
0.323233
0.323133
0.323266
0.331103
0.329619
0.327026
0.326677
0.32898
0.329377
0.32961
0.328046
0.327287
0.327287
0.325419
0.325828
0.329591
0.327025
0.327287
0.327961
0.327961
0.327287
0.323999
0.329415
0.331091
0.326676
0.327287
0.327961
0.327961
0.327287
0.323657
0.329314
0.328979
0.325419
0.327287
0.327287
0.323217
0.324905
0.329449
0.329377
0.32583
0.324
0.323656
0.324905
0.326183
0.329589
0.329416
0.329317
0.329452
0.337284
0.3358
0.333207
0.332858
0.335159
0.335548
0.335795
0.334228
0.33347
0.33347
0.331603
0.332012
0.33578
0.333209
0.33347
0.334144
0.334144
0.33347
0.330183
0.3356
0.337275
0.33286
0.33347
0.334144
0.334144
0.33347
0.329839
0.335501
0.335165
0.331603
0.33347
0.33347
0.3294
0.331088
0.335632
0.335564
0.332013
0.330184
0.32984
0.331089
0.332366
0.335769
0.335599
0.335506
0.335635
0.343468
0.341989
0.339392
0.339042
0.341342
0.34173
0.341973
0.340411
0.339653
0.339653
0.337786
0.338195
0.341961
0.339391
0.339653
0.340327
0.340327
0.339653
0.336365
0.341783
0.343457
0.339042
0.339653
0.340327
0.340327
0.339653
0.336022
0.341689
0.341345
0.337785
0.339653
0.339653
0.335583
0.33727
0.341813
0.341731
0.338195
0.336367
0.336023
0.337273
0.338548
0.341956
0.341783
0.341684
0.341819
0.349651
0.348165
0.345575
0.345225
0.347526
0.347915
0.348162
0.346594
0.345836
0.345836
0.343969
0.344379
0.348146
0.345574
0.345836
0.34651
0.34651
0.345837
0.342549
0.347967
0.349641
0.345226
0.345836
0.34651
0.34651
0.345836
0.342206
0.347869
0.347531
0.343969
0.345835
0.345836
0.341766
0.343455
0.347998
0.347929
0.344377
0.342548
0.342205
0.343453
0.344731
0.348134
0.347965
0.347866
0.348
0.355833
0.354348
0.351756
0.351406
0.353709
0.354113
0.354343
0.352775
0.352018
0.352018
0.350151
0.350562
0.354324
0.351756
0.352018
0.352692
0.352692
0.352018
0.348732
0.354151
0.355816
0.351405
0.352018
0.352692
0.352692
0.352018
0.348388
0.35405
0.353708
0.350151
0.352018
0.352018
0.347948
0.349637
0.354181
0.354095
0.350562
0.348732
0.348387
0.349636
0.350913
0.354324
0.35415
0.354049
0.35418
0.362016
0.360527
0.357939
0.35759
0.359893
0.360278
0.360527
0.358959
0.358201
0.358201
0.356334
0.356742
0.360505
0.357939
0.358201
0.358875
0.358875
0.358201
0.354913
0.360329
0.362007
0.35759
0.3582
0.358875
0.358875
0.358201
0.354571
0.360234
0.359895
0.356333
0.358201
0.358201
0.354131
0.355819
0.360363
0.360295
0.356743
0.354914
0.35457
0.355819
0.357096
0.360502
0.36033
0.360232
0.360366
0.368198
0.366708
0.364122
0.363772
0.366074
0.366463
0.366715
0.365141
0.364384
0.364384
0.362517
0.362928
0.366694
0.364122
0.364384
0.365058
0.365058
0.364384
0.361098
0.366515
0.368189
0.363774
0.364384
0.365058
0.365058
0.364384
0.360754
0.366416
0.366078
0.362517
0.364384
0.364384
0.360314
0.362002
0.366547
0.366478
0.362926
0.361097
0.360753
0.362002
0.36328
0.366684
0.366514
0.366415
0.366549
0.374382
0.372896
0.370304
0.369955
0.37226
0.372658
0.372893
0.371324
0.370567
0.370566
0.3687
0.369107
0.37287
0.370306
0.370567
0.371241
0.371241
0.370566
0.367278
0.372696
0.374372
0.369956
0.370567
0.371241
0.371241
0.370567
0.366936
0.372601
0.372261
0.368699
0.370567
0.370567
0.366497
0.368185
0.372726
0.372664
0.36911
0.367281
0.366936
0.368185
0.369462
0.372868
0.372698
0.372599
0.372733
0.380565
0.379083
0.376489
0.376139
0.37844
0.378826
0.379072
0.377508
0.37675
0.37675
0.374884
0.375292
0.379059
0.376489
0.37675
0.377424
0.377424
0.37675
0.373462
0.37888
0.380555
0.37614
0.37675
0.377424
0.377424
0.37675
0.37312
0.378787
0.378444
0.374882
0.37675
0.37675
0.372681
0.374369
0.378914
0.378847
0.375292
0.373463
0.37312
0.374369
0.375646
0.37905
0.378881
0.378782
0.378915
0.386748
0.385261
0.382671
0.382322
0.384624
0.385009
0.38526
0.383691
0.382933
0.382933
0.381066
0.381475
0.385241
0.382671
0.382933
0.383607
0.383607
0.382933
0.379645
0.385064
0.386738
0.382323
0.382933
0.383607
0.383607
0.382932
0.379303
0.384961
0.384627
0.381066
0.382933
0.382932
0.378863
0.380552
0.385097
0.385023
0.381475
0.379645
0.379301
0.38055
0.381828
0.385233
0.385062
0.384957
0.385094
0.392931
0.391448
0.388855
0.388504
0.390806
0.391193
0.391437
0.389873
0.389115
0.389115
0.387249
0.387658
0.391423
0.388853
0.389116
0.389789
0.389789
0.389115
0.385828
0.391246
0.392919
0.388505
0.389116
0.38979
0.389789
0.389115
0.385485
0.391148
0.390808
0.387249
0.389115
0.389116
0.385046
0.386733
0.391277
0.391194
0.387658
0.385829
0.385485
0.386734
0.388011
0.39142
0.391247
0.391148
0.391282
0.399113
0.39763
0.395035
0.394686
0.396988
0.397376
0.397624
0.396055
0.395298
0.395298
0.393431
0.393842
0.397606
0.395038
0.395298
0.395972
0.395972
0.395298
0.392012
0.397431
0.399104
0.394689
0.395298
0.395972
0.395972
0.395298
0.391669
0.397334
0.396994
0.393432
0.395298
0.395298
0.391228
0.392917
0.397461
0.397388
0.393839
0.392011
0.391668
0.392916
0.394193
0.397598
0.397426
0.397327
0.397462
0.405299
0.403818
0.40122
0.400871
0.403177
0.403573
0.403802
0.402238
0.401481
0.401481
0.399614
0.400022
0.403783
0.401219
0.401481
0.402155
0.402155
0.401481
0.398193
0.403608
0.405284
0.40087
0.401481
0.402155
0.402155
0.401481
0.397851
0.403518
0.403171
0.399615
0.401481
0.401481
0.397411
0.399099
0.403644
0.403556
0.400024
0.398194
0.39785
0.3991
0.400378
0.403789
0.403614
0.403508
0.403647
0.411479
0.409991
0.407402
0.407052
0.409357
0.409759
0.40999
0.40842
0.407663
0.407664
0.405797
0.406207
0.409966
0.407401
0.407663
0.408337
0.408337
0.407663
0.404377
0.409794
0.411468
0.407052
0.407663
0.408337
0.408337
0.407663
0.404034
0.409697
0.409354
0.405797
0.407664
0.407663
0.403594
0.405282
0.409829
0.409739
0.406207
0.404377
0.404033
0.405282
0.406559
0.409972
0.409797
0.409696
0.409827
0.417662
0.416173
0.413584
0.413235
0.415539
0.415925
0.416176
0.414604
0.413846
0.413846
0.41198
0.412386
0.416153
0.413586
0.413846
0.41452
0.41452
0.413846
0.410557
0.415976
0.417652
0.413236
0.413846
0.41452
0.41452
0.413846
0.410215
0.415879
0.415539
0.411979
0.413847
0.413847
0.409777
0.411464
0.41601
0.415943
0.41239
0.41056
0.410218
0.411467
0.412743
0.416151
0.415979
0.41588
0.416013
0.423843
0.422355
0.419766
0.419417
0.421718
0.422108
0.422357
0.420786
0.420029
0.420029
0.418162
0.418574
0.422341
0.419768
0.420029
0.420703
0.420703
0.420029
0.416743
0.422163
0.423835
0.419419
0.420029
0.420703
0.420703
0.420029
0.416401
0.422066
0.421725
0.418163
0.420029
0.420029
0.41596
0.41765
0.422197
0.422124
0.418571
0.416742
0.416398
0.417647
0.418925
0.422329
0.422159
0.422056
0.422191
0.430028
0.428545
0.42595
0.425601
0.427907
0.428304
0.428536
0.42697
0.426212
0.426212
0.424345
0.424752
0.428516
0.425951
0.426212
0.426886
0.426886
0.426211
0.422923
0.428341
0.430018
0.425602
0.426212
0.426886
0.426886
0.426212
0.422582
0.428252
0.427906
0.424345
0.426212
0.426212
0.422143
0.423831
0.428375
0.428303
0.424755
0.422925
0.422582
0.423831
0.425109
0.428515
0.428343
0.428244
0.428379
0.436211
0.434731
0.432134
0.431784
0.434085
0.434474
0.434717
0.433152
0.432395
0.432395
0.430529
0.430937
0.434706
0.432133
0.432395
0.433069
0.433069
0.432395
0.429107
0.434527
0.4362
0.431784
0.432395
0.433069