/*--------------------------------*- C++ -*----------------------------------*\
| =========                 |                                                 |
| \\      /  F ield         | OpenFOAM: The Open Source CFD Toolbox           |
|  \\    /   O peration     | Version:  v1906                                 |
|   \\  /    A nd           | Web:      www.OpenFOAM.com                      |
|    \\/     M anipulation  |                                                 |
\*---------------------------------------------------------------------------*/
FoamFile
{
    version     2.0;
    format      ascii;
    class       volVectorField;
    location    "0.1";
    object      U;
}
// * * * * * * * * * * * * * * * * * * * * * * * * * * * * * * * * * * * * * //

dimensions      [0 1 -1 0 0 0 0];


internalField   nonuniform List<vector> 
118248
(
(0.00825027 -0.00414455 0.031648)
(5.98201e-05 -0.000204546 0.0362622)
(-0.000838169 0.000846682 0.00771404)
(0.000182178 0.000538855 0.00737633)
(0.00590322 -0.00573887 0.0371619)
(-1.7962e-05 -0.00107652 0.0359697)
(-0.000173607 7.89325e-05 0.0361962)
(0.00269817 0.00275718 0.00963428)
(0.00109065 0.00230179 0.0114132)
(-0.000152364 0.00202174 0.0117601)
(-0.000739222 0.00328744 0.0105931)
(-0.000922934 0.00192445 0.00859059)
(0.0038361 -0.00167064 0.0371445)
(0.000670482 -0.000549004 0.00809539)
(0.00219109 0.00110801 0.0114122)
(0.00129861 0.00133602 0.0132647)
(-0.0004617 0.0012426 0.0135779)
(-0.00204822 0.00223105 0.0124735)
(-0.00395395 0.00214279 0.00963024)
(0.0124766 0.000388613 0.0338962)
(-0.00410304 0.00814936 0.0329222)
(0.00018123 1.91477e-05 0.00781182)
(0.00187077 -0.000141524 0.0117577)
(0.00122351 -0.000468771 0.0135746)
(-0.000461706 -0.000478366 0.0139325)
(-0.00221843 -0.000522591 0.0128282)
(-0.00457339 -0.000504598 0.0100786)
(0.011677 -2.67399e-05 0.0352651)
(-0.00561452 0.00502734 0.0372356)
(0.00324629 -0.000726618 0.010602)
(0.00220996 -0.00205305 0.0124789)
(-0.000517209 -0.00222788 0.0128261)
(-0.00228331 -0.00231067 0.0116017)
(-0.000984904 -0.00201915 0.00843869)
(0.00472182 -0.000927142 0.0324144)
(-0.0013034 -0.000391875 0.0353852)
(0.00181508 -0.00089306 0.00864358)
(0.00210956 -0.00395349 0.00964198)
(-0.000537734 -0.00458594 0.010082)
(-0.00203281 -0.000987735 0.00844213)
(0.000603566 0.000697557 0.00757101)
(-0.00160815 0.00388469 0.0372691)
(0.000348999 0.0124586 0.033929)
(-8.70753e-05 0.0116407 0.0352959)
(-0.000641203 0.00490996 0.0323845)
(-9.8379e-05 -0.000914689 -0.00763856)
(-0.00306673 -0.0027851 -0.00855005)
(-0.00856434 -0.0141103 0.0185499)
(0.000862273 -0.0148171 0.0184998)
(0.0150188 -0.0113127 -0.00926737)
(0.00196506 0.00083971 -0.00840792)
(-0.00279461 -0.00311772 -0.00863508)
(-0.0148528 -0.0148417 0.0200649)
(0.000161128 0.00117531 0.00873388)
(-0.00016045 0.00117503 0.0087329)
(0.0306127 -0.0159948 0.0208252)
(0.0195947 -0.00719651 0.0177033)
(0.0023443 0.0012587 -0.008443)
(-0.0141173 -0.00858329 0.0185214)
(0.00117079 0.00016664 0.00872765)
(-0.000100451 -9.53055e-05 0.00886485)
(0.000100414 -9.56511e-05 0.00886476)
(-0.00117025 0.000167013 0.00872813)
(0.038118 -0.0028057 0.0185597)
(0.0201725 -0.000880393 -0.00858109)
(-0.000866587 -0.000148063 -0.00768757)
(-0.0148072 0.000845761 0.01848)
(0.00116869 -0.000160648 0.00872644)
(-9.23913e-05 9.44625e-05 0.0088675)
(9.14323e-05 9.45025e-05 0.00886694)
(-0.00116809 -0.000160959 0.00872524)
(0.0374549 0.000520771 0.0185718)
(0.0218202 0.000743657 -0.00905845)
(-0.011279 0.0149372 -0.0093335)
(-0.0159925 0.0306094 0.020806)
(0.000167786 -0.0011646 0.00872334)
(-0.000169144 -0.00116554 0.00872472)
(0.0294236 0.0293993 0.021913)
(0.0204305 0.00495233 0.018688)
(0.00893191 0.00163962 -0.00899222)
(0.000983202 0.00173109 -0.00778108)
(-0.00718083 0.019633 0.0176803)
(-0.0028104 0.0381259 0.0185483)
(0.000512931 0.0374456 0.0185686)
(0.0049519 0.0204218 0.0186948)
(0.00967783 0.00962122 0.0167676)
(0.00119611 0.00229967 -0.00839552)
(-0.00090366 0.0201693 -0.00858864)
(0.000683751 0.0217895 -0.00910388)
(0.00164619 0.00892132 -0.00900338)
(-0.000150508 -0.00110581 -0.0123796)
(-0.00298112 -0.00375631 -0.015046)
(-0.00931652 -0.0171212 0.0113611)
(0.00107828 -0.0178141 0.0111332)
(0.0174315 -0.0128832 -0.0180061)
(0.00141278 0.000527597 -0.013922)
(-0.00377706 -0.00288105 -0.0150213)
(-0.0155747 -0.0155881 0.0105977)
(0.000126998 0.000633164 0.0103884)
(-0.000127354 0.000633144 0.0103887)
(0.0305343 -0.0172504 0.0107012)
(0.0215495 -0.0079719 0.011162)
(0.00284398 0.00183108 -0.014524)
(-0.01712 -0.0093125 0.0113573)
(0.000633203 0.000126894 0.0103871)
(-0.000441269 -0.000439264 0.0103)
(0.00044121 -0.000438993 0.0103002)
(-0.000633771 0.000127204 0.0103871)
(0.0383848 -0.0029998 0.0108004)
(0.0241948 -0.0011498 -0.0160369)
(-0.00105154 -0.000203943 -0.0123864)
(-0.0178156 0.00107945 0.0111333)
(0.000636545 -0.000127719 0.0103877)
(-0.000440356 0.000436163 0.0102997)
(0.000441086 0.000436473 0.0103)
(-0.000636557 -0.000127056 0.0103874)
(0.0376823 0.000939337 0.0107325)
(0.0256157 -4.41136e-05 -0.016814)
(-0.0128736 0.0174265 -0.0180144)
(-0.0172532 0.0305311 0.0106989)
(0.000126098 -0.000631094 0.0103855)
(-0.000125638 -0.000630207 0.0103859)
(0.0285884 0.0285835 0.0107365)
(0.0226588 0.00572029 0.0111467)
(0.0104494 0.00167484 -0.015829)
(0.000540741 0.00142959 -0.0142679)
(-0.00795894 0.0215336 0.0111656)
(-0.00299166 0.0383826 0.0107965)
(0.000939344 0.037671 0.0107295)
(0.00573109 0.0226694 0.0111357)
(0.0114848 0.011511 0.0114339)
(0.00184998 0.00284944 -0.0145338)
(-0.00113722 0.024193 -0.0160435)
(-8.34826e-05 0.0255672 -0.016769)
(0.00169552 0.0104394 -0.0158246)
(-0.000151038 -0.00110763 -0.0126173)
(-0.00300208 -0.00377134 -0.0153122)
(-0.00931602 -0.0171661 0.0111072)
(0.00105808 -0.017832 0.0108706)
(0.0174893 -0.0128744 -0.0182641)
(0.00154094 0.000395608 -0.0145169)
(-0.00379106 -0.00288521 -0.0153263)
(-0.0155421 -0.0155534 0.0103803)
(0.000181874 0.000480681 0.010425)
(-0.000181922 0.000480725 0.0104247)
(0.0307247 -0.0172117 0.0104301)
(0.021594 -0.00795952 0.0108268)
(0.00286959 0.00185784 -0.0148005)
(-0.0171628 -0.0093077 0.0111053)
(0.00047867 0.000179983 0.0104246)
(-0.000448841 -0.000450872 0.0103892)
(0.000449287 -0.000450591 0.0103893)
(-0.000478761 0.000178979 0.0104248)
(0.0386 -0.00304102 0.0104897)
(0.0242889 -0.00120908 -0.0162752)
(-0.0010528 -0.000203513 -0.0126227)
(-0.0178343 0.00106488 0.0108718)
(0.00048149 -0.000181085 0.0104253)
(-0.000450381 0.000448806 0.0103883)
(0.000449784 0.000449519 0.0103883)
(-0.000483904 -0.000181406 0.0104251)
(0.0378041 0.000847919 0.0104118)
(0.0256646 -0.000124833 -0.0169866)
(-0.0128649 0.0175043 -0.0182585)
(-0.0172194 0.0307232 0.0104282)
(0.000179858 -0.000480412 0.0104241)
(-0.000178634 -0.000478233 0.0104241)
(0.0285068 0.0285146 0.0104175)
(0.0225967 0.00576075 0.0108106)
(0.0104351 0.00168001 -0.0160812)
(0.000458612 0.00160751 -0.0146091)
(-0.00795353 0.021564 0.010843)
(-0.00303235 0.0385976 0.0104908)
(0.00085237 0.0378007 0.010411)
(0.00576827 0.0226146 0.010809)
(0.0114857 0.0115269 0.0111201)
(0.00188256 0.00287363 -0.0148203)
(-0.00118809 0.0242879 -0.0162771)
(-0.000138879 0.0256373 -0.0169932)
(0.00171915 0.0104291 -0.0160727)
(-0.000149172 -0.00110606 -0.0126095)
(-0.00292735 -0.0037572 -0.0152962)
(-0.00930943 -0.0171512 0.0111171)
(0.00105889 -0.0178173 0.0108793)
(0.0174952 -0.0128637 -0.0182387)
(0.00160308 0.000371736 -0.01455)
(-0.00379517 -0.0029497 -0.0153174)
(-0.0155304 -0.0155286 0.0103958)
(0.000215671 0.000464707 0.0104224)
(-0.000215413 0.000464625 0.0104217)
(0.030745 -0.017182 0.0104396)
(0.0215704 -0.00795926 0.0108346)
(0.00288249 0.00187975 -0.014799)
(-0.0171528 -0.00931208 0.0111131)
(0.000462596 0.000214644 0.0104214)
(-0.000443079 -0.00044472 0.0104232)
(0.000442839 -0.000445006 0.0104232)
(-0.000462259 0.000215114 0.0104223)
(0.0386305 -0.00304927 0.0105025)
(0.0242951 -0.0012032 -0.0162585)
(-0.00105288 -0.000205355 -0.0126144)
(-0.0178179 0.00105393 0.010882)
(0.000464497 -0.000213964 0.0104227)
(-0.000443597 0.000445566 0.0104228)
(0.00044405 0.000444639 0.0104227)
(-0.000462216 -0.000213868 0.0104221)
(0.0378154 0.000830254 0.0104211)
(0.025642 -0.000142387 -0.0170266)
(-0.0128484 0.0174877 -0.0182315)
(-0.0171813 0.0307448 0.0104405)
(0.000213224 -0.000462844 0.0104218)
(-0.000214486 -0.000465128 0.0104221)
(0.0284872 0.0284851 0.010425)
(0.022581 0.0057655 0.0108141)
(0.0104212 0.00171479 -0.0160527)
(0.000470852 0.00149843 -0.0148069)
(-0.00793867 0.0215764 0.010833)
(-0.00304712 0.0386357 0.0105003)
(0.000820654 0.0378033 0.0104247)
(0.0057706 0.0225646 0.0108202)
(0.0115431 0.0114627 0.0111215)
(0.00184587 0.00285849 -0.0148129)
(-0.00120165 0.0242964 -0.0162572)
(-0.000172535 0.025627 -0.0169222)
(0.00170006 0.0104189 -0.0160677)
(-0.000148648 -0.00110537 -0.0126072)
(-0.00289925 -0.00376499 -0.0153672)
(-0.00930935 -0.0171489 0.0111187)
(0.00105859 -0.0178151 0.0108809)
(0.0175086 -0.0128559 -0.0182338)
(0.00157257 0.000455852 -0.0142697)
(-0.0037757 -0.00299183 -0.0152463)
(-0.0155309 -0.0155183 0.0103984)
(0.000219877 0.000462104 0.0104193)
(-0.000220686 0.000462166 0.0104187)
(0.0307457 -0.0171741 0.0104381)
(0.0215693 -0.00795534 0.0108419)
(0.00286996 0.00186755 -0.0147981)
(-0.0171502 -0.00931621 0.0111175)
(0.000460093 0.000221026 0.0104182)
(-0.000443989 -0.000442942 0.01043)
(0.000443596 -0.000442797 0.0104301)
(-0.000460325 0.000220966 0.0104185)
(0.0386347 -0.00305181 0.0105022)
(0.0242838 -0.00120777 -0.0162567)
(-0.00105304 -0.000205976 -0.0126118)
(-0.017817 0.00105315 0.0108852)
(0.000459814 -0.000219766 0.0104188)
(-0.000443979 0.000443674 0.0104296)
(0.00044385 0.000443755 0.0104296)
(-0.000460137 -0.000220037 0.0104185)
(0.0378124 0.000823242 0.0104245)
(0.0256533 -0.000118324 -0.0169718)
(-0.0128469 0.0174916 -0.0182318)
(-0.0171735 0.0307444 0.0104381)
(0.000219964 -0.000461845 0.0104183)
(-0.00021995 -0.000461423 0.0104185)
(0.0284743 0.0284778 0.010421)
(0.022567 0.00577004 0.0108159)
(0.0104197 0.00171096 -0.0160606)
(0.000474432 0.00148702 -0.0148335)
(-0.00794143 0.0215681 0.0108422)
(-0.00304915 0.0386395 0.0105021)
(0.00081999 0.037808 0.0104237)
(0.00577 0.0225627 0.0108183)
(0.0114962 0.0115011 0.0111186)
(0.00184148 0.00285565 -0.0148023)
(-0.00120904 0.0242892 -0.0162558)
(-0.000146519 0.0256296 -0.0169673)
(0.00170407 0.0104197 -0.016054)
(-0.00014831 -0.00110516 -0.0126026)
(-0.00289772 -0.00376417 -0.0153814)
(-0.00930864 -0.0171511 0.0111213)
(0.00106223 -0.0178166 0.0108837)
(0.0175089 -0.0128592 -0.01823)
(0.00164512 0.000407109 -0.0148714)
(-0.00377481 -0.00299601 -0.0152362)
(-0.0155264 -0.0155209 0.0103993)
(0.000221421 0.000458052 0.0104188)
(-0.000222638 0.000459042 0.0104181)
(0.0307457 -0.0171753 0.0104395)
(0.0215518 -0.00795468 0.010845)
(0.00288058 0.00188139 -0.0148168)
(-0.0171517 -0.00931714 0.0111174)
(0.000460285 0.000221726 0.0104179)
(-0.000442254 -0.000442657 0.0104316)
(0.000441836 -0.000442443 0.0104316)
(-0.00046004 0.000221868 0.0104183)
(0.0386302 -0.00305133 0.010504)
(0.024282 -0.00121106 -0.0162593)
(-0.00105305 -0.000206663 -0.0126155)
(-0.0178176 0.00105085 0.0108841)
(0.000460193 -0.000221509 0.0104188)
(-0.000442329 0.000442526 0.0104315)
(0.000442159 0.000442559 0.0104314)
(-0.000460568 -0.000221928 0.0104181)
(0.0378142 0.000824083 0.0104235)
(0.0256735 -9.38858e-05 -0.0169329)
(-0.0128562 0.0174897 -0.0182389)
(-0.0171685 0.0307432 0.0104398)
(0.000222046 -0.000458725 0.0104176)
(-0.000221949 -0.000458341 0.0104183)
(0.0284746 0.0284794 0.0104194)
(0.0225641 0.00576408 0.0108176)
(0.0104305 0.00169177 -0.0160613)
(0.0003973 0.00155191 -0.0144874)
(-0.00794748 0.0215842 0.0108204)
(-0.00305209 0.038642 0.0105023)
(0.000820405 0.0378101 0.0104243)
(0.00577364 0.0225663 0.0108144)
(0.0115106 0.0114842 0.0111177)
(0.00185696 0.00286894 -0.0147868)
(-0.00120968 0.0242867 -0.0162514)
(-0.000146686 0.0256277 -0.0169659)
(0.0017102 0.010417 -0.0160569)
(-0.000147744 -0.0011052 -0.0126061)
(-0.00296129 -0.0037723 -0.0152383)
(-0.00930988 -0.0171504 0.0111203)
(0.00106268 -0.0178166 0.0108827)
(0.0175108 -0.0128571 -0.0182276)
(0.00165179 0.000403468 -0.0148581)
(-0.00377006 -0.00292757 -0.0153709)
(-0.0155238 -0.0155229 0.0103988)
(0.000221804 0.00045874 0.0104185)
(-0.000221794 0.000459657 0.0104183)
(0.0307463 -0.0171738 0.0104391)
(0.0215539 -0.00795158 0.0108409)
(0.00288227 0.00188394 -0.014818)
(-0.0171523 -0.00931715 0.0111164)
(0.000459643 0.000221864 0.0104177)
(-0.00044237 -0.000442328 0.0104319)
(0.000442247 -0.000442394 0.0104318)
(-0.000458586 0.000221708 0.0104184)
(0.038631 -0.00305144 0.0105032)
(0.0242873 -0.00120828 -0.0162601)
(-0.00105288 -0.000206439 -0.0126113)
(-0.0178164 0.00105025 0.0108845)
(0.000459035 -0.000221686 0.0104188)
(-0.000442328 0.000442717 0.0104318)
(0.000442152 0.000442261 0.0104318)
(-0.000459423 -0.000221581 0.0104183)
(0.037813 0.000823867 0.0104241)
(0.0256511 -0.000117833 -0.0169716)
(-0.0128458 0.0174891 -0.0182373)
(-0.0171704 0.0307461 0.0104389)
(0.000221571 -0.000459099 0.0104179)
(-0.000222164 -0.0004587 0.0104183)
(0.0284764 0.0284758 0.010419)
(0.0225688 0.00576744 0.0108174)
(0.0104209 0.00171352 -0.0160497)
(0.00052751 0.00141457 -0.0142147)
(-0.00794166 0.0215878 0.0108376)
(-0.00305259 0.0386442 0.0105019)
(0.000816376 0.0378062 0.0104251)
(0.00577137 0.0225584 0.0108178)
(0.0115378 0.0114629 0.0111226)
(0.00182423 0.00284252 -0.0147841)
(-0.00120448 0.0242981 -0.0162508)
(-0.00017819 0.02562 -0.0170092)
(0.00170517 0.0104136 -0.0160618)
(-0.000147817 -0.00110532 -0.0126066)
(-0.00296102 -0.00377167 -0.0152361)
(-0.00930925 -0.0171505 0.0111179)
(0.0010622 -0.0178166 0.0108823)
(0.0174992 -0.0128548 -0.0182308)
(0.0015533 0.000447744 -0.0148677)
(-0.0037702 -0.00292839 -0.0153764)
(-0.0155257 -0.015521 0.0103984)
(0.000221993 0.000458821 0.0104185)
(-0.000221882 0.000458087 0.0104176)
(0.0307465 -0.0171751 0.0104378)
(0.0215536 -0.00795 0.0108508)
(0.00286818 0.00186206 -0.0148179)
(-0.0171531 -0.00931702 0.011117)
(0.000459126 0.000221587 0.0104175)
(-0.000442105 -0.00044202 0.0104317)
(0.000441885 -0.000442204 0.0104318)
(-0.00045998 0.000222134 0.0104179)
(0.0386319 -0.00305076 0.010502)
(0.0242887 -0.00121403 -0.0162628)
(-0.00105275 -0.000206336 -0.0126123)
(-0.0178176 0.0010502 0.0108835)
(0.000459816 -0.000221589 0.0104183)
(-0.000442151 0.000442323 0.0104316)
(0.000442226 0.000442246 0.0104315)
(-0.000459357 -0.000221306 0.0104174)
(0.0378122 0.000823913 0.010424)
(0.0256534 -0.000118579 -0.0169721)
(-0.0128495 0.0174956 -0.0182391)
(-0.0171699 0.0307453 0.0104383)
(0.000221694 -0.000458034 0.0104172)
(-0.00022209 -0.00045872 0.010418)
(0.0284752 0.0284766 0.0104188)
(0.0225682 0.00576891 0.0108143)
(0.0104216 0.0017063 -0.0160498)
(0.000487423 0.00150065 -0.0142083)
(-0.00794142 0.0215872 0.0108241)
(-0.003052 0.0386412 0.0105013)
(0.000818531 0.0378081 0.0104239)
(0.00576943 0.0225604 0.0108195)
(0.0115305 0.0114687 0.0111215)
(0.00184724 0.00285687 -0.0147825)
(-0.00120651 0.0242837 -0.0162514)
(-0.000146802 0.0256296 -0.0169678)
(0.00170916 0.0104164 -0.0160645)
(-0.000151026 -0.00110641 -0.0126077)
(-0.00299884 -0.00376363 -0.0153072)
(-0.00931804 -0.0171541 0.0111156)
(0.00105218 -0.0178165 0.0108822)
(0.0174932 -0.0128595 -0.018238)
(0.00154796 0.000396897 -0.0144979)
(-0.00378295 -0.00289049 -0.0152995)
(-0.0155177 -0.0155294 0.0103991)
(0.000221651 0.000458547 0.0104183)
(-0.000221681 0.000458876 0.0104178)
(0.0307435 -0.0171684 0.010439)
(0.0215815 -0.00795293 0.0108259)
(0.00286888 0.00185633 -0.0147924)
(-0.0171508 -0.00930935 0.0111164)
(0.00045874 0.000221524 0.0104173)
(-0.000441631 -0.000441901 0.0104318)
(0.000441689 -0.000441824 0.0104318)
(-0.000458269 0.000221737 0.0104179)
(0.0386341 -0.00305467 0.010501)
(0.0242796 -0.0012186 -0.0162603)
(-0.00105185 -0.000203565 -0.012612)
(-0.0178177 0.00105829 0.0108837)
(0.00045875 -0.000221605 0.0104183)
(-0.000441623 0.000441837 0.0104317)
(0.000441816 0.000441835 0.0104316)
(-0.000458587 -0.000221534 0.0104187)
(0.0378142 0.000822214 0.0104235)
(0.0256759 -9.54038e-05 -0.0169258)
(-0.0128454 0.0174969 -0.0182331)
(-0.0171757 0.0307436 0.0104367)
(0.000221669 -0.000458702 0.0104174)
(-0.000221478 -0.000458597 0.0104184)
(0.0284746 0.0284796 0.0104184)
(0.0225574 0.00576518 0.0108182)
(0.0104316 0.00168072 -0.0160598)
(0.000505487 0.00151718 -0.0145869)
(-0.00794013 0.0215533 0.0108494)
(-0.00304502 0.0386351 0.0105019)
(0.000824684 0.0378084 0.0104225)
(0.0057739 0.0225716 0.0108141)
(0.0114768 0.0115128 0.011119)
(0.00185741 0.00285741 -0.0148146)
(-0.00119932 0.024288 -0.0162605)
(-0.000141004 0.0256277 -0.0169696)
(0.00172595 0.0104159 -0.0160548)
(-0.000149085 -0.00110538 -0.0126077)
(-0.0029257 -0.0037673 -0.0153736)
(-0.00931324 -0.0171526 0.0111172)
(0.0010556 -0.0178158 0.010882)
(0.0175026 -0.0128527 -0.0182403)
(0.00149588 0.000487352 -0.0142301)
(-0.00377444 -0.0029636 -0.0152386)
(-0.0155232 -0.0155228 0.010399)
(0.000221733 0.000459182 0.0104183)
(-0.000221214 0.000458011 0.010418)
(0.0307468 -0.0171714 0.0104374)
(0.0215862 -0.00794754 0.0108372)
(0.00285763 0.00184896 -0.0147824)
(-0.017151 -0.00931396 0.0111172)
(0.000457826 0.000221726 0.010418)
(-0.000441806 -0.000441537 0.0104315)
(0.000441879 -0.000441726 0.0104316)
(-0.000458791 0.000221119 0.0104172)
(0.0386401 -0.00305186 0.0105021)
(0.0242915 -0.00120283 -0.0162516)
(-0.00105253 -0.000205419 -0.0126123)
(-0.0178182 0.00105659 0.0108846)
(0.00045874 -0.000221333 0.0104181)
(-0.000441734 0.000441718 0.0104315)
(0.000441708 0.000441605 0.0104314)
(-0.000458058 -0.000221973 0.0104173)
(0.0378117 0.000820429 0.0104222)
(0.0256228 -0.000157901 -0.0169788)
(-0.0128502 0.017492 -0.0182293)
(-0.0171737 0.030744 0.0104383)
(0.000221285 -0.000457995 0.0104176)
(-0.000221588 -0.000458872 0.0104177)
(0.0284742 0.0284781 0.0104177)
(0.022566 0.00576934 0.0108132)
(0.010414 0.00171589 -0.016057)
(0.000446115 0.00155883 -0.0148459)
(-0.00794259 0.0215557 0.0108384)
(-0.00305017 0.0386354 0.010502)
(0.000820411 0.037806 0.0104241)
(0.0057697 0.0225614 0.0108185)
(0.0114964 0.0115034 0.0111149)
(0.00186332 0.00286896 -0.014821)
(-0.00120869 0.0242911 -0.0162601)
(-0.000147124 0.0256288 -0.0169685)
(0.00170507 0.0104192 -0.016052)
(-0.000148988 -0.00110557 -0.0126076)
(-0.00290497 -0.00376457 -0.0153555)
(-0.00931161 -0.0171526 0.0111159)
(0.00105823 -0.0178168 0.0108807)
(0.0174953 -0.0128612 -0.0182383)
(0.00160216 0.000373618 -0.0145481)
(-0.00377531 -0.00298762 -0.0152554)
(-0.015529 -0.0155181 0.0103983)
(0.000221056 0.000458527 0.0104178)
(-0.000221732 0.000458398 0.0104171)
(0.0307445 -0.0171722 0.0104372)
(0.0215677 -0.00795732 0.0108374)
(0.00288016 0.00187556 -0.0147976)
(-0.0171535 -0.00931775 0.0111121)
(0.000457547 0.000221439 0.0104169)
(-0.000441587 -0.000441552 0.0104315)
(0.000441119 -0.000441216 0.0104313)
(-0.000458555 0.000221618 0.0104178)
(0.0386342 -0.00305386 0.0105013)
(0.024285 -0.00121469 -0.0162603)
(-0.0010526 -0.00020577 -0.0126133)
(-0.0178177 0.00105296 0.0108828)
(0.000457827 -0.000221452 0.0104183)
(-0.0004414 0.000441143 0.0104314)
(0.000441466 0.000441576 0.0104312)
(-0.00045875 -0.000220939 0.0104179)
(0.0378116 0.000820826 0.0104234)
(0.0256517 -0.000121221 -0.0169742)
(-0.0128422 0.0174917 -0.0182312)
(-0.017173 0.0307453 0.0104372)
(0.000221607 -0.000458991 0.010417)
(-0.000220961 -0.00045743 0.0104183)
(0.028474 0.0284788 0.0104167)
(0.0225644 0.0057638 0.010816)
(0.0104221 0.00169839 -0.0160594)
(0.000535357 0.00144601 -0.0145302)
(-0.00793501 0.0215722 0.0108386)
(-0.00304727 0.0386383 0.0105004)
(0.000822299 0.037809 0.010421)
(0.00577362 0.0225656 0.0108146)
(0.0115131 0.011485 0.0111179)
(0.00184306 0.00284899 -0.0148077)
(-0.00120121 0.0242851 -0.0162581)
(-0.000142831 0.0256273 -0.016973)
(0.00170911 0.0104174 -0.0160592)
(-0.000150436 -0.00110604 -0.0126074)
(-0.00295273 -0.00375765 -0.0153287)
(-0.00931662 -0.017154 0.011116)
(0.00105533 -0.0178167 0.01088)
(0.0174953 -0.012861 -0.0182365)
(0.00160805 0.000372219 -0.0145404)
(-0.00378992 -0.00293 -0.0152925)
(-0.0155178 -0.0155277 0.0103984)
(0.000220382 0.000457708 0.0104185)
(-0.000222013 0.000459106 0.0104178)
(0.0307447 -0.0171717 0.0104362)
(0.0215708 -0.00795717 0.0108321)
(0.00288264 0.00187961 -0.0148039)
(-0.0171517 -0.00931013 0.0111158)
(0.000458038 0.000221885 0.0104181)
(-0.000441398 -0.000440844 0.0104317)
(0.00044057 -0.000441135 0.0104317)
(-0.000456957 0.000220803 0.0104179)
(0.0386379 -0.00305443 0.0104995)
(0.0242839 -0.00121389 -0.0162625)
(-0.0010518 -0.000203463 -0.0126136)
(-0.017818 0.00105926 0.0108833)
(0.000456527 -0.000220684 0.0104182)
(-0.000442096 0.000441433 0.0104316)
(0.000440118 0.00044055 0.0104316)
(-0.000459247 -0.000221987 0.0104176)
(0.0378068 0.000817116 0.0104241)
(0.0256645 -0.000126068 -0.0169219)
(-0.0128454 0.0174979 -0.0182357)
(-0.0171774 0.030745 0.0104361)
(0.000220031 -0.00045812 0.0104178)
(-0.00022242 -0.000458064 0.0104176)
(0.0284741 0.028476 0.0104157)
(0.0225626 0.00576236 0.0108162)
(0.0104269 0.00169416 -0.0160619)
(0.000504702 0.0015127 -0.0146046)
(-0.00794345 0.0215527 0.0108569)
(-0.00304703 0.0386366 0.0105011)
(0.000817556 0.0378012 0.0104243)
(0.00577507 0.0225629 0.0108139)
(0.0115137 0.0114848 0.011116)
(0.00185976 0.00285844 -0.0148097)
(-0.00119417 0.024301 -0.0162632)
(-0.000183575 0.025614 -0.0169678)
(0.00171332 0.0104122 -0.0160587)
(-0.000147367 -0.00110483 -0.0126068)
(-0.00292759 -0.00376416 -0.0152247)
(-0.00931033 -0.0171509 0.0111161)
(0.00106232 -0.0178163 0.0108811)
(0.0175083 -0.0128584 -0.0182311)
(0.00164549 0.000406875 -0.0148739)
(-0.00377593 -0.00296845 -0.0153817)
(-0.0155296 -0.0155175 0.0103992)
(0.00022053 0.000458978 0.0104187)
(-0.000221369 0.000458719 0.0104179)
(0.0307449 -0.0171752 0.0104364)
(0.0215531 -0.00795352 0.0108438)
(0.0028819 0.00188381 -0.0148164)
(-0.0171566 -0.00932018 0.011114)
(0.000455911 0.000221136 0.0104173)
(-0.000441611 -0.000440449 0.0104319)
(0.000440481 -0.000440618 0.010432)
(-0.000457551 0.00022149 0.0104185)
(0.0386327 -0.00304902 0.0105011)
(0.0242817 -0.00121137 -0.0162593)
(-0.00105279 -0.000206951 -0.0126132)
(-0.017819 0.00104893 0.0108837)
(0.00045661 -0.000221409 0.0104186)
(-0.000441411 0.000440759 0.0104318)
(0.00044068 0.000440962 0.0104319)
(-0.000457874 -0.00022117 0.0104188)
(0.0378111 0.00082393 0.0104227)
(0.0256592 -0.0001079 -0.0169609)
(-0.0128508 0.0174952 -0.0182397)
(-0.0171718 0.0307441 0.0104374)
(0.000220995 -0.000458144 0.0104178)
(-0.000221227 -0.000457733 0.0104189)
(0.0284775 0.0284764 0.0104165)
(0.0225707 0.0057674 0.0108134)
(0.0104243 0.00171212 -0.0160521)
(0.000484521 0.00150485 -0.0142044)
(-0.00794515 0.0215869 0.0108286)
(-0.00305226 0.0386399 0.0104995)
(0.000819683 0.0378073 0.0104226)
(0.00577208 0.0225598 0.0108168)
(0.0115421 0.0114636 0.0111198)
(0.00185011 0.00285877 -0.0147937)
(-0.00120758 0.0242831 -0.0162547)
(-0.000146412 0.0256286 -0.0169703)
(0.00170377 0.0104167 -0.0160599)
(-0.000148387 -0.00110507 -0.0126062)
(-0.00291956 -0.00375574 -0.0153153)
(-0.0093127 -0.0171531 0.0111165)
(0.00105867 -0.0178167 0.0108823)
(0.0175051 -0.0128553 -0.0182335)
(0.0015858 0.000430257 -0.014816)
(-0.00379377 -0.00295575 -0.0152953)
(-0.0155225 -0.0155212 0.0103987)
(0.000221788 0.000456537 0.0104189)
(-0.000220575 0.000456418 0.0104186)
(0.0307452 -0.0171732 0.0104376)
(0.0215694 -0.00794719 0.0108337)
(0.00287156 0.00186615 -0.0148106)
(-0.0171548 -0.00931563 0.0111123)
(0.000458561 0.000221025 0.0104178)
(-0.000440361 -0.000440791 0.010432)
(0.000440764 -0.000440735 0.0104319)
(-0.000457986 0.00022113 0.010418)
(0.0386341 -0.00304926 0.0105015)
(0.0242958 -0.00120479 -0.0162626)
(-0.0010524 -0.000205367 -0.0126151)
(-0.0178178 0.0010532 0.0108807)
(0.000458472 -0.000221124 0.0104188)
(-0.000440158 0.000440611 0.0104319)
(0.000440878 0.00044043 0.0104318)
(-0.000456956 -0.000220651 0.010418)
(0.037815 0.000823872 0.0104199)
(0.0256346 -0.000145804 -0.0170299)
(-0.012848 0.017491 -0.0182399)
(-0.0171738 0.0307444 0.0104359)
(0.000220911 -0.000457039 0.0104181)
(-0.00022106 -0.000457528 0.0104182)
(0.0284781 0.0284765 0.0104162)
(0.0225723 0.0057664 0.0108131)
(0.0104174 0.00171943 -0.0160466)
(0.000498422 0.00148561 -0.0142561)
(-0.00794716 0.021571 0.0108415)
(-0.00305027 0.0386378 0.010501)
(0.000819905 0.0378057 0.0104223)
(0.00577135 0.022559 0.010816)
(0.0115427 0.0114651 0.0111188)
(0.00183934 0.00285204 -0.0147925)
(-0.00121151 0.0242892 -0.0162593)
(-0.000149233 0.0256287 -0.0169742)
(0.00170302 0.0104167 -0.0160599)
(-0.000150048 -0.00110589 -0.0126086)
(-0.00296521 -0.00376163 -0.0153028)
(-0.00931566 -0.0171555 0.011114)
(0.0010561 -0.0178174 0.0108793)
(0.0174863 -0.0128575 -0.0182408)
(0.00152902 0.000409358 -0.0145176)
(-0.00378634 -0.00291394 -0.015305)
(-0.0155208 -0.0155235 0.0103985)
(0.000221028 0.000456328 0.0104184)
(-0.000220767 0.000457271 0.0104178)
(0.0307462 -0.0171707 0.0104352)
(0.0215717 -0.00794898 0.0108304)
(0.00286667 0.00185413 -0.0148012)
(-0.017156 -0.00931447 0.0111119)
(0.000457744 0.00022085 0.0104172)
(-0.000439846 -0.000440224 0.0104319)
(0.000440264 -0.000440149 0.0104317)
(-0.000456514 0.000220424 0.0104183)
(0.0386365 -0.00305327 0.0105009)
(0.0242977 -0.00121352 -0.0162611)
(-0.00105149 -0.000203636 -0.0126119)
(-0.0178191 0.00105744 0.0108819)
(0.000457252 -0.000220446 0.0104184)
(-0.000440094 0.000440267 0.0104319)
(0.000439926 0.000440342 0.0104317)
(-0.000457681 -0.000221308 0.0104183)
(0.0378094 0.000818314 0.0104213)
(0.0256238 -0.000161669 -0.0169842)
(-0.0128494 0.0175068 -0.0182362)
(-0.0171777 0.0307432 0.0104358)
(0.000220907 -0.000456588 0.0104178)
(-0.000221074 -0.00045616 0.0104184)
(0.0284734 0.0284787 0.0104161)
(0.0225616 0.00576503 0.0108161)
(0.0104169 0.00169755 -0.0160521)
(0.000460558 0.00161492 -0.0145868)
(-0.00794886 0.0215531 0.0108467)
(-0.00304736 0.0386325 0.0104998)
(0.000822553 0.0378063 0.0104222)
(0.00577226 0.0225669 0.0108141)
(0.0115064 0.0114951 0.0111171)
(0.00188187 0.00287299 -0.0148154)
(-0.00119863 0.0242865 -0.0162645)
(-0.0001426 0.0256279 -0.0169745)
(0.00171753 0.0104161 -0.0160567)
(-0.00015041 -0.00110569 -0.0126088)
(-0.00296565 -0.00377293 -0.0153822)
(-0.00931736 -0.0171564 0.0111154)
(0.00105219 -0.0178162 0.0108812)
(0.0174916 -0.0128484 -0.0182393)
(0.00141803 0.000526497 -0.0142037)
(-0.00376635 -0.00293004 -0.0152247)
(-0.0155179 -0.0155272 0.0103992)
(0.000220283 0.000455889 0.0104188)
(-0.000221378 0.000457116 0.0104189)
(0.0307468 -0.0171696 0.0104364)
(0.0215892 -0.00794202 0.0108321)
(0.00284206 0.00182208 -0.0147936)
(-0.0171527 -0.00931486 0.011115)
(0.000457409 0.00022086 0.0104183)
(-0.000439618 -0.000440141 0.0104316)
(0.00043994 -0.000439763 0.0104317)
(-0.000456345 0.000220255 0.0104181)
(0.0386357 -0.00305343 0.0104985)
(0.0242844 -0.00122049 -0.0162606)
(-0.00105194 -0.000204421 -0.0126132)
(-0.0178177 0.00105747 0.0108838)
(0.000456171 -0.000220185 0.0104185)
(-0.000439969 0.000439916 0.0104316)
(0.000439536 0.000440167 0.0104316)
(-0.000457584 -0.000221105 0.0104185)
(0.0378104 0.000819673 0.0104215)
(0.0256521 -0.000125437 -0.0169803)
(-0.0128504 0.0174911 -0.018236)
(-0.0171768 0.0307436 0.0104351)
(0.000220924 -0.000457049 0.0104182)
(-0.000220476 -0.000455611 0.0104183)
(0.0284733 0.0284802 0.0104146)
(0.0225551 0.00576545 0.0108192)
(0.0104218 0.00168693 -0.0160586)
(0.000449306 0.00155227 -0.0148658)
(-0.00794807 0.0215556 0.0108508)
(-0.0030484 0.0386361 0.0104998)
(0.000822973 0.0378093 0.0104206)
(0.00577195 0.0225747 0.0108103)
(0.0114781 0.0115174 0.0111175)
(0.001864 0.00286964 -0.0148212)
(-0.00120927 0.0242914 -0.0162671)
(-0.000142669 0.0256286 -0.0169752)
(0.00172492 0.0104166 -0.0160538)
(-0.000147268 -0.00110448 -0.0126101)
(-0.0029528 -0.00379229 -0.0152952)
(-0.00931258 -0.0171581 0.0111125)
(0.001059 -0.0178179 0.0108791)
(0.0175047 -0.0128493 -0.0182435)
(0.0015252 0.000495218 -0.0145644)
(-0.00375754 -0.00292084 -0.0153178)
(-0.0155208 -0.0155211 0.0103982)
(0.000220793 0.000456493 0.0104182)
(-0.000220445 0.000455632 0.0104181)
(0.0307467 -0.0171739 0.0104342)
(0.0215689 -0.00794133 0.0108415)
(0.0028604 0.00186079 -0.014796)
(-0.0171547 -0.00931782 0.0111107)
(0.000456626 0.000220576 0.0104181)
(-0.000438919 -0.000439502 0.0104315)
(0.00043975 -0.000439739 0.0104317)
(-0.000456391 0.000220019 0.010418)
(0.0386313 -0.00304786 0.0104984)
(0.0242829 -0.00120698 -0.0162662)
(-0.00105266 -0.000206599 -0.0126152)
(-0.0178184 0.00105186 0.0108805)
(0.000458172 -0.000220239 0.0104184)
(-0.000439242 0.000439595 0.0104315)
(0.000439381 0.000439346 0.0104315)
(-0.000456795 -0.000221005 0.0104189)
(0.0378116 0.000825151 0.010421)
(0.0256524 -0.000117325 -0.0169787)
(-0.0128586 0.0174881 -0.0182455)
(-0.0171713 0.0307418 0.0104358)
(0.000220726 -0.000454475 0.0104177)
(-0.000220931 -0.000456009 0.0104179)
(0.0284761 0.0284778 0.0104132)
(0.0225665 0.00577214 0.0108132)
(0.010418 0.00171295 -0.0160558)
(0.000369988 0.0016132 -0.0145218)
(-0.00795225 0.0215716 0.010823)
(-0.003053 0.0386365 0.0104976)
(0.000818279 0.0378064 0.0104207)
(0.00576542 0.0225638 0.0108144)
(0.011495 0.0115081 0.0111135)
(0.00188201 0.00288437 -0.0148105)
(-0.0012117 0.0242875 -0.0162668)
(-0.0001505 0.0256269 -0.0169762)
(0.00169806 0.010419 -0.0160557)
(-0.00014724 -0.00110466 -0.0126085)
(-0.00292708 -0.00376448 -0.0152247)
(-0.00931178 -0.0171544 0.0111131)
(0.00106213 -0.0178179 0.0108788)
(0.0175061 -0.0128571 -0.0182397)
(0.00164215 0.000406019 -0.0148657)
(-0.0037755 -0.00296662 -0.0153793)
(-0.0155254 -0.0155194 0.0103993)
(0.000220585 0.000456466 0.0104189)
(-0.000220397 0.000456749 0.0104184)
(0.030745 -0.0171745 0.0104348)
(0.0215529 -0.00794869 0.010838)
(0.00288006 0.00187982 -0.0148169)
(-0.0171584 -0.00932017 0.0111099)
(0.000455583 0.000220749 0.010418)
(-0.00043957 -0.000439212 0.0104321)
(0.000439146 -0.000439044 0.010432)
(-0.000455767 0.00022171 0.0104182)
(0.0386263 -0.00304799 0.0105015)
(0.0242802 -0.00121588 -0.0162699)
(-0.00105233 -0.000206212 -0.0126117)
(-0.017819 0.00105104 0.0108824)
(0.000454965 -0.000220801 0.010419)