/*--------------------------------*- C++ -*----------------------------------*\
| =========                 |                                                 |
| \\      /  F ield         | OpenFOAM: The Open Source CFD Toolbox           |
|  \\    /   O peration     | Version:  v1906                                 |
|   \\  /    A nd           | Web:      www.OpenFOAM.com                      |
|    \\/     M anipulation  |                                                 |
\*---------------------------------------------------------------------------*/
FoamFile
{
    version     2.0;
    format      ascii;
    class       volScalarField;
    location    "0.2";
    object      p;
}
// * * * * * * * * * * * * * * * * * * * * * * * * * * * * * * * * * * * * * //

dimensions      [0 2 -2 0 0 0 0];


internalField   nonuniform List<scalar> 
118248
(
-2.25878e-08
0.000206978
0.000166155
0.000425937
0.000257444
7.6934e-05
0.00021375
0.000740737
0.0004753
0.00052678
0.000588164
0.000378206
6.45958e-05
0.000160593
0.000474491
0.000390181
0.00039003
0.000423764
0.000545512
0.000503105
4.66087e-05
0.000394621
0.000529598
0.000393511
0.000366619
0.000455404
0.000622474
0.000285748
0.000270159
0.000588943
0.000426824
0.00045683
0.000560656
0.000446387
0.000199634
9.78781e-05
0.000369741
0.000545062
0.000622637
0.000448182
0.000173926
7.32065e-05
0.000503026
0.000290174
0.000197429
0.00285651
0.00264527
0.00176484
0.00168206
0.00238172
0.00253487
0.00264122
0.00240603
0.00218992
0.00218999
0.000783929
0.000995668
0.00266091
0.00176308
0.00219005
0.00272526
0.00272507
0.00218979
-0.000478611
0.00245021
0.00285672
0.00168162
0.00219032
0.00272379
0.00272358
0.00219009
-0.000557538
0.00230668
0.00238799
0.000785283
0.00218986
0.00218967
-0.00092342
0.000304602
0.00248484
0.00253846
0.000994862
-0.000478117
-0.0005559
0.000304885
0.00125666
0.0026597
0.00245208
0.00230844
0.00248474
0.00532223
0.0049856
0.00386376
0.00373356
0.00456822
0.00484859
0.00498977
0.00452178
0.00433467
0.00433446
0.00300113
0.00316151
0.00498055
0.00386379
0.00433511
0.0049173
0.00491724
0.00433455
0.00196258
0.00469658
0.00531774
0.0037343
0.00433482
0.00491701
0.00491698
0.00433448
0.00184143
0.00455549
0.00456949
0.0030015
0.00433469
0.00433462
0.00157677
0.00256211
0.00474264
0.00485465
0.00316166
0.00196342
0.00184222
0.0025638
0.0034267
0.00498261
0.00469951
0.00455874
0.00474355
0.00734853
0.00699924
0.00590186
0.00577543
0.00658525
0.00685796
0.00700392
0.00657971
0.00640105
0.00640178
0.00504505
0.00518112
0.00699711
0.00590261
0.00640211
0.00698061
0.00698036
0.00640076
0.00400968
0.00671976
0.00734348
0.00577624
0.00640154
0.00698046
0.00698035
0.00640151
0.0039179
0.00658736
0.00658509
0.00504529
0.00640184
0.00640146
0.00361799
0.00458691
0.00676054
0.0068659
0.00518232
0.00401012
0.00391778
0.004587
0.00543645
0.00699765
0.00672141
0.00658588
0.00675913
0.00938624
0.00903976
0.00794111
0.00781487
0.00862167
0.00889412
0.00903764
0.00862229
0.00844347
0.00844349
0.00708295
0.00721859
0.00903379
0.0079411
0.00844358
0.00902541
0.00902551
0.00844334
0.00604662
0.00875773
0.00938078
0.0078154
0.00844353
0.00902546
0.00902544
0.00844357
0.00595931
0.00862612
0.00862151
0.00708272
0.00844345
0.00844353
0.00565069
0.00662241
0.00879639
0.00889947
0.00721749
0.00604752
0.00595926
0.00662239
0.00747159
0.00903218
0.00875816
0.00862603
0.00879512
0.0114265
0.0110799
0.00998139
0.00985527
0.0106612
0.010936
0.0110767
0.010663
0.0104842
0.010484
0.00912329
0.00925907
0.0110738
0.00998158
0.0104841
0.0110666
0.0110666
0.0104845
0.00808708
0.0107986
0.0114211
0.00985612
0.0104842
0.0110665
0.0110665
0.010484
0.0080006
0.0106666
0.0106619
0.0091228
0.010484
0.0104842
0.0076902
0.00866285
0.0108366
0.0109389
0.00925693
0.00808632
0.00799928
0.00866173
0.00951201
0.0110723
0.0107984
0.0106649
0.0108363
0.0134673
0.0131203
0.0120222
0.011896
0.012702
0.0129784
0.0131174
0.0127035
0.0125247
0.0125246
0.0111633
0.0112991
0.0131142
0.0120215
0.0125246
0.0131072
0.0131073
0.0125248
0.0101274
0.0128384
0.0134613
0.011896
0.0125248
0.0131073
0.0131074
0.0125247
0.0100409
0.0127034
0.0127019
0.0111636
0.0125248
0.0125251
0.00973059
0.0107027
0.0128777
0.0129751
0.0112994
0.0101277
0.0100403
0.0107032
0.0115526
0.0131149
0.0128404
0.0127061
0.0128771
0.0155074
0.0151584
0.0140624
0.0139363
0.014742
0.015019
0.0151605
0.0147441
0.014565
0.0145651
0.0132036
0.0133401
0.0151549
0.0140624
0.0145653
0.0151477
0.0151478
0.0145651
0.0121683
0.0148794
0.0155021
0.0139368
0.0145651
0.0151478
0.0151477
0.0145652
0.0120813
0.0147477
0.0147426
0.0132044
0.0145653
0.0145652
0.0117712
0.0127425
0.0149176
0.015017
0.0133384
0.0121683
0.0120816
0.0127445
0.013593
0.0151527
0.0148796
0.0147492
0.0149173
0.0175485
0.0171993
0.0161032
0.0159773
0.016784
0.0170615
0.0172008
0.0167848
0.0166057
0.0166059
0.0152444
0.0153794
0.0171942
0.016103
0.0166059
0.0171884
0.0171884
0.0166059
0.0142081
0.0169195
0.0175426
0.0159771
0.0166057
0.0171883
0.0171884
0.0166058
0.0141218
0.0167883
0.0167828
0.0152449
0.0166059
0.0166058
0.0138119
0.0147837
0.0169588
0.0170572
0.0153801
0.0142094
0.014122
0.0147846
0.0156337
0.0171956
0.0169216
0.0167869
0.0169576
0.0195889
0.0192385
0.0181436
0.0180175
0.0188241
0.0190971
0.0192429
0.0188254
0.0186463
0.0186464
0.0172855
0.0174209
0.0192368
0.0181438
0.0186465
0.019229
0.0192289
0.0186465
0.0162496
0.0189607
0.0195837
0.0180182
0.0186464
0.0192289
0.019229
0.0186464
0.0161627
0.0188254
0.0188245
0.0172853
0.0186464
0.0186464
0.0158523
0.0168249
0.0189996
0.0191055
0.0174207
0.0162492
0.0161622
0.0168246
0.0176749
0.0192349
0.0189615
0.0188275
0.0189984
0.0216295
0.0212825
0.0201842
0.0200582
0.0208643
0.021138
0.0212805
0.020866
0.0206871
0.0206869
0.0193263
0.0194608
0.0212766
0.0201844
0.020687
0.0212696
0.0212696
0.0206869
0.0182899
0.0210014
0.021624
0.0200587
0.0206871
0.0212696
0.0212696
0.0206871
0.0182039
0.0208732
0.020865
0.0193256
0.0206869
0.0206872
0.017893
0.018866
0.02104
0.0211432
0.0194612
0.0182899
0.0182027
0.0188648
0.019715
0.0212753
0.0210018
0.0208681
0.0210393
0.0236705
0.0233232
0.0222248
0.0220989
0.0229059
0.0231784
0.0233209
0.0229066
0.0227277
0.0227277
0.0213668
0.0215024
0.0233179
0.0222251
0.0227278
0.0233103
0.0233103
0.0227279
0.0203304
0.0230423
0.0236648
0.0220995
0.0227278
0.0233103
0.0233103
0.0227276
0.0202443
0.0229106
0.0229054
0.0213666
0.0227277
0.0227278
0.0199338
0.020906
0.0230813
0.0231858
0.0215009
0.0203307
0.0202434
0.0209061
0.0217555
0.0233169
0.0230434
0.0229091
0.0230801
0.025711
0.0253634
0.0242658
0.0241396
0.0249462
0.0252191
0.0253626
0.0249474
0.0247683
0.0247683
0.0234074
0.0235432
0.0253592
0.0242658
0.0247684
0.0253509
0.0253509
0.0247685
0.0223711
0.0250839
0.0257059
0.0241405
0.0247684
0.0253509
0.0253508
0.0247681
0.0222848
0.024949
0.0249469
0.0234073
0.0247683
0.0247685
0.0219744
0.0229464
0.025121
0.0252274
0.0235418
0.0223707
0.0222849
0.0229469
0.0237961
0.0253565
0.0250825
0.024956
0.025121
0.0277509
0.0274046
0.0263056
0.0261797
0.0269857
0.0272621
0.0274006
0.0269875
0.0268085
0.0268086
0.0254473
0.0255829
0.0273988
0.0263059
0.0268088
0.0273914
0.0273913
0.0268088
0.0244111
0.0271239
0.0277457
0.0261802
0.0268088
0.0273913
0.0273913
0.0268087
0.0243242
0.0269861
0.0269859
0.0254482
0.0268089
0.0268089
0.0240147
0.0249868
0.0271604
0.0272605
0.025583
0.024412
0.0243246
0.0249875
0.0258364
0.0273988
0.0271248
0.02699
0.0271609
0.0297919
0.0294452
0.0283467
0.0282203
0.0290262
0.0293021
0.0294427
0.0290282
0.0288492
0.0288493
0.0274879
0.0276231
0.0294389
0.0283462
0.0288493
0.0294318
0.0294318
0.0288491
0.0264519
0.0291634
0.0297863
0.0282209
0.0288492
0.0294318
0.0294318
0.0288494
0.0263653
0.0290321
0.0290272
0.0274884
0.0288494
0.0288493
0.0260553
0.0270273
0.0292018
0.0293018
0.027623
0.0264517
0.0263652
0.0270283
0.0278771
0.0294364
0.0291642
0.0290304
0.0292016
0.0318327
0.0314824
0.0303871
0.030261
0.0310685
0.031342
0.0314859
0.0310687
0.0308897
0.0308898
0.0295287
0.0296641
0.0314775
0.0303867
0.0308898
0.0314722
0.0314723
0.0308896
0.0284925
0.0312039
0.0318268
0.0302613
0.0308896
0.0314724
0.0314723
0.03089
0.0284066
0.0310763
0.0310671
0.0295289
0.0308899
0.0308898
0.0280959
0.0290681
0.0312439
0.0313482
0.0296648
0.0284927
0.028406
0.0290687
0.0299179
0.0314803
0.031206
0.0310715
0.0312421
0.0338729
0.0335226
0.0324275
0.0323014
0.0331081
0.0333827
0.0335261
0.033109
0.0329303
0.03293
0.0315695
0.0317033
0.0335181
0.0324272
0.0329301
0.0335128
0.0335128
0.0329303
0.0305333
0.0332447
0.0338673
0.032302
0.0329302
0.0335128
0.0335127
0.0329301
0.0304468
0.0331132
0.0331085
0.0315691
0.0329302
0.0329304
0.0301362
0.0311085
0.0332838
0.0333861
0.0317035
0.0305321
0.030446
0.0311088
0.0319587
0.0335188
0.0332452
0.0331115
0.0332825
0.0359135
0.0355643
0.0344676
0.0343419
0.0351485
0.0354271
0.0355669
0.0351497
0.0349708
0.0349706
0.0336099
0.033744
0.0355611
0.0344684
0.0349707
0.0355533
0.0355533
0.034971
0.0325736
0.0352858
0.0359081
0.0343423
0.0349707
0.0355533
0.0355533
0.0349706
0.0324873
0.0351539
0.0351486
0.0336101
0.0349708
0.0349709
0.0321769
0.0331494
0.0353234
0.035422
0.0337461
0.0325738
0.0324871
0.0331493
0.0339988
0.0355618
0.0352873
0.0351529
0.0353244
0.0379537
0.0376068
0.036508
0.0363822
0.0371889
0.0374652
0.0376037
0.03719
0.0370111
0.0370112
0.0356499
0.0357857
0.037601
0.0365085
0.0370113
0.0375938
0.0375938
0.0370112
0.034614
0.0373259
0.0379488
0.0363831
0.0370111
0.0375937
0.0375937
0.0370111
0.0345268
0.037187
0.0371894
0.0356506
0.0370112
0.037011
0.0342173
0.0351891
0.0373637
0.0374692
0.0357838
0.0346135
0.0345273
0.0351902
0.0360389
0.0376006
0.037327
0.0371926
0.0373633
0.0399947
0.0396479
0.0385488
0.038423
0.0392303
0.0395076
0.0396436
0.0392304
0.0390516
0.0390517
0.0376906
0.037825
0.0396403
0.0385486
0.0390516
0.0396342
0.0396342
0.0390516
0.0366538
0.0393659
0.0399888
0.0384232
0.0390514
0.0396342
0.0396342
0.0390517
0.0365681
0.0392348
0.0392293
0.0376912
0.0390517
0.0390516
0.0362576
0.0372297
0.0394056
0.039503
0.037825
0.0366541
0.0365676
0.0372304
0.0380795
0.0396416
0.0393677
0.0392333
0.0394039
0.0420346
0.0416876
0.0405891
0.040463
0.0412695
0.0415439
0.041684
0.0412706
0.041092
0.041092
0.0397315
0.0398662
0.0416824
0.0405888
0.0410921
0.0416747
0.0416747
0.0410923
0.0386952
0.0414076
0.0420291
0.0404635
0.041092
0.0416746
0.0416745
0.0410919
0.038609
0.0412729
0.0412697
0.039731
0.0410921
0.0410921
0.0382983
0.0392705
0.0414448
0.0415456
0.0398659
0.0386941
0.0386081
0.039271
0.0401205
0.041682
0.0414076
0.0412737
0.0414447
0.0440757
0.0437253
0.0426295
0.0425039
0.0433113
0.0435879
0.0437294
0.0433114
0.0431325
0.0431326
0.0417716
0.0419051
0.0437213
0.0426302
0.0431327
0.0437151
0.0437152
0.0431325
0.0407351
0.0434478
0.0440704
0.0425046
0.0431325
0.0437151
0.043715
0.0431325
0.0406494
0.0433134
0.0433105
0.0417721
0.0431326
0.0431324
0.0403387
0.0413115
0.0434856
0.0435908
0.0419067
0.0407344
0.0406483
0.0413108
0.0421608
0.0437234
0.0434488
0.0433143
0.0434849
0.0461164
0.0457696
0.0446703
0.0445444
0.0453517
0.0456239
0.0457669
0.0453518
0.0451731
0.0451731
0.0438126
0.0439472
0.0457638
0.0446701
0.045173
0.0457557
0.0457557
0.0451732
0.042776
0.0454886
0.0461104
0.0445446
0.045173
0.0457557
0.0457557
0.0451732
0.04269
0.0453567
0.0453512
0.0438125
0.0451731
0.0451732
0.0423793
0.0433519
0.0455268
0.0456245
0.0439481
0.0427758
0.0426893
0.0433519
0.0442016
0.0457639
0.0454897
0.0453553
0.0455263
0.0481567
0.0478094
0.0467107
0.0465847
0.0473916
0.047665
0.0478079
0.0473924
0.0472136
0.0472134
0.0458533
0.045987
0.0478036
0.0467107
0.0472136
0.0477962
0.047796
0.0472138
0.0448163
0.0475281
0.0481513
0.0465855
0.0472135
0.0477961
0.0477961
0.0472134
0.0447303
0.0473936
0.0473922
0.0458531
0.0472137
0.0472136
0.0444198
0.0453923
0.0475672
0.0476731
0.045987
0.0448152
0.0447296
0.0453924
0.046242
0.047803
0.0475297
0.0473957
0.0475668
0.0501973
0.0498501
0.0487512
0.0486254
0.0494324
0.0497121
0.0498473
0.0494328
0.0492542
0.049254
0.0478934
0.0480281
0.0498445
0.0487511
0.049254
0.0498367
0.0498367
0.0492541
0.0468564
0.0495701
0.0501913
0.0486256
0.049254
0.0498367
0.0498365
0.049254
0.0467706
0.0494356
0.0494317
0.0478939
0.0492542
0.0492543
0.0464604
0.0474332
0.0496069
0.0497061
0.048028
0.046857
0.0467704
0.0474329
0.0482822
0.0498446
0.0495709
0.0494365
0.0496073
0.0522379
0.0518914
0.0507916
0.050666
0.051473
0.051753
0.0518869
0.0514732
0.0512947
0.0512945
0.049934
0.0500683
0.0518849
0.0507915
0.0512945
0.0518771
0.0518772
0.0512945
0.0488963
0.05161
0.0522322
0.050666
0.0512947
0.0518772
0.0518771
0.0512946
0.0488114
0.0514817
0.0514733
0.049934
0.0512946
0.0512948
0.0485007
0.0494734
0.051648
0.0517469
0.0500679
0.0488971
0.048811
0.0494733
0.0503228
0.0518831
0.0516107
0.0514768
0.0516482
0.0542783
0.0539316
0.052832
0.052706
0.0535137
0.0537866
0.0539277
0.0535137
0.0533349
0.0533349
0.0519745
0.0521098
0.053926
0.0528318
0.0533351
0.0539176
0.0539177
0.0533351
0.0509378
0.0536515
0.0542724
0.0527063
0.0533349
0.0539176
0.0539175
0.0533351
0.0508526
0.0535203
0.0535132
0.0519746
0.053335
0.0533351
0.0505415
0.0515142
0.0536883
0.0537876
0.052108
0.050938
0.050852
0.0515143
0.0523637
0.0539234
0.0536514
0.0535176
0.053689
0.0563187
0.0559679
0.0548723
0.0547467
0.0555545
0.0558316
0.0559727
0.0555542
0.0553755
0.0553755
0.0540148
0.0541486
0.0559648
0.0548726
0.0553756
0.0559581
0.0559581
0.0553755
0.0529776
0.0556909
0.0563136
0.0547472
0.0553755
0.0559581
0.0559581
0.0553756
0.0528926
0.0555594
0.0555544
0.054015
0.0553755
0.0553754
0.0525818
0.0535547
0.0557299
0.0558335
0.054148
0.052978
0.052892
0.0535541
0.0544039
0.0559649
0.0556921
0.0555578
0.0557284
0.0583593
0.0580134
0.0569127
0.056787
0.0575942
0.0578679
0.0580083
0.0575946
0.057416
0.0574158
0.056056
0.0561891
0.0580068
0.0569131
0.057416
0.0579985
0.0579986
0.0574159
0.0550183
0.0577322
0.058354
0.0567876
0.0574161
0.0579986
0.0579985
0.0574159
0.0549331
0.0576003
0.057595
0.0560552
0.057416
0.0574161
0.0546223
0.0555947
0.0577706
0.0578718
0.0561886
0.0550184
0.0549324
0.0555952
0.0564437
0.0580049
0.0577322
0.0575985
0.0577694
0.0604
0.060053
0.0589533
0.0588275
0.0596355
0.0599077
0.060051
0.0596351
0.0594564
0.0594565
0.0580962
0.0582311
0.0600473
0.0589536
0.0594566
0.060039
0.060039
0.0594564
0.057059
0.0597726
0.0603947
0.0588283
0.0594565
0.060039
0.060039
0.0594563
0.0569738
0.0596407
0.0596356
0.0580962
0.0594564
0.0594563
0.0566628
0.0576353
0.0598104
0.0599145
0.0582289
0.0570587
0.0569728
0.0576354
0.0584839
0.060046
0.0597732
0.0596389
0.0598096
0.0624407
0.0620938
0.0609939
0.0608681
0.0616765
0.0619498
0.0620912
0.0616754
0.0614968
0.0614968
0.0601366
0.0602701
0.062086
0.0609937
0.0614968
0.0620794
0.0620795
0.0614968
0.0590988
0.0618129
0.0624349
0.0608684
0.0614969
0.0620795
0.0620796
0.0614968
0.0590145
0.0616824
0.0616763
0.0601365
0.0614969
0.061497
0.0587033
0.059676
0.0618512
0.0619496
0.0602699
0.0590992
0.0590133
0.059676
0.0605246
0.0620858
0.0618137
0.0616798
0.0618507
0.0644811
0.0641343
0.0630343
0.0629085
0.0637165
0.0639886
0.0641316
0.0637159
0.0635374
0.0635373
0.0621773
0.0623112
0.0641287
0.0630341
0.0635374
0.06412
0.06412
0.0635373
0.0611389
0.0638538
0.0644755
0.0629089
0.0635374
0.06412
0.06412
0.0635374
0.0610545
0.0637218
0.0637165
0.0621771
0.0635375
0.0635376
0.0607439
0.0617166
0.0638919
0.0639955
0.0623098
0.0611398
0.0610541
0.0617167
0.0625652
0.0641273
0.0638548
0.0637207
0.0638915
0.0665217
0.0661749
0.0650749
0.0649491
0.0657571
0.0660293
0.0661723
0.0657565
0.0655779
0.0655779
0.0642179
0.0643519
0.0661696
0.0650748
0.065578
0.0661606
0.0661607
0.065578
0.0631798
0.0658949
0.0665162
0.0649496
0.0655779
0.0661606
0.0661604
0.0655779
0.0630956
0.0657636
0.0657573
0.0642176
0.065578
0.0655781
0.0627846
0.0637569
0.0659319
0.0660364
0.0643503
0.0631804
0.0630951
0.0637579
0.0646065
0.0661676
0.0658953
0.0657614
0.0659323
0.0685623
0.0682155
0.0671154
0.0669896
0.0677978
0.0680699
0.0682129
0.0677969
0.0676184
0.0676183
0.0662584
0.0663923
0.0682103
0.0671152
0.0676183
0.068201
0.0682011
0.0676185
0.0652203
0.0679358
0.0685567
0.06699
0.0676183
0.0682009
0.0682009
0.0676184
0.065136
0.0678044
0.0677979
0.0662581
0.0676183
0.0676184
0.0648249
0.0657982
0.0679723
0.0680768
0.0663905
0.0652208
0.0651354
0.0657973
0.0666468
0.068208
0.0679356
0.0678015
0.0679727
0.0706028
0.0702553
0.0691557
0.0690299
0.0698383
0.0701102
0.0702537
0.0698372
0.0696587
0.0696587
0.0682989
0.0684325
0.0702504
0.0691554
0.0696587
0.0702413
0.0702414
0.0696586
0.0672603
0.0699758
0.0705971
0.0690303
0.0696587
0.0702414
0.0702413
0.0696589
0.0671765
0.0698473
0.0698383
0.0682985
0.0696587
0.0696588
0.0668653
0.0678382
0.0700142
0.0701172
0.0684307
0.0672607
0.0671755
0.067838
0.0686864
0.0702485
0.0699762
0.0698422
0.0700128
0.0726432
0.0722954
0.0711963
0.0710705
0.0718787
0.0721508
0.0722942
0.0718777
0.0716992
0.0716991
0.0703394
0.0704732
0.0722909
0.0711958
0.0716994
0.0722819
0.0722818
0.0716993
0.0693012
0.0720162
0.0726376
0.0710708
0.0716992
0.0722819
0.0722818
0.0716992
0.0692169
0.0718843
0.0718788
0.0703391
0.0716992
0.0716992
0.0689058
0.0698785
0.0720544
0.0721576
0.0704712
0.0693013
0.0692161
0.0698786
0.0707268
0.072289
0.0720168
0.0718827
0.0720533
0.0746831
0.074333
0.0732359
0.0731104
0.0739183
0.0741916
0.0743371
0.073918
0.0737394
0.0737393
0.07238
0.0725123
0.0743308
0.0732368
0.0737396
0.0743222
0.0743221
0.0737395
0.0713415
0.0740565
0.0746786
0.0731116
0.0737396
0.074322
0.0743221
0.0737391
0.0712573
0.0739223
0.0739197
0.0723795
0.0737395
0.0737394
0.070946
0.0719189
0.0740939
0.0741956
0.0725113
0.0713409
0.0712558
0.0719186
0.072767
0.0743289
0.0740562
0.073919
0.0740932
0.076724
0.0763772
0.0752765
0.0751508
0.0759596
0.0762313
0.0763747
0.0759582
0.0757798
0.0757799
0.0744201
0.0745532
0.0763715
0.0752763
0.0757799
0.0763625
0.0763625
0.0757798
0.073382
0.0760984
0.0767183
0.0751512
0.0757797
0.0763625
0.0763623
0.0757799
0.0732977
0.0759636
0.0759589
0.0744204
0.0757799
0.0757799
0.0729867
0.0739598
0.0761344
0.0762322
0.0745529
0.0733819
0.073297
0.0739596
0.0748082
0.0763715
0.0760984
0.075964
0.0761349
0.0787645
0.0784175
0.0773167
0.0771912
0.0780006
0.0782732
0.0784142
0.0779984
0.0778202
0.0778202
0.0764604
0.0765935
0.0784095
0.0773171
0.0778202
0.0784028
0.0784028
0.0778201
0.0754221
0.0781372
0.0787591
0.0771922
0.0778203
0.0784029
0.0784028
0.0778203
0.0753382
0.0780058
0.0780007
0.0764606
0.0778202
0.0778202
0.0750268
0.0759997
0.0781758
0.0782802
0.0765927
0.0754212
0.0753368
0.0759997
0.0768478
0.0784101
0.0781378
0.0780038
0.0781745
0.0808046
0.0804576
0.079357
0.0792313
0.0800407
0.080314
0.0804556
0.0800387
0.0798603
0.0798603
0.0785006
0.0786337
0.0804497
0.0793571
0.0798605
0.0804431
0.0804431
0.0798605
0.0774622
0.0801765
0.080799
0.0792321
0.0798602
0.0804431
0.0804431
0.0798603
0.0773784
0.0800422
0.0800397
0.0785012
0.0798605
0.0798606
0.0770672
0.0780407
0.0802151
0.0803131
0.0786332
0.0774623
0.0773774
0.0780397
0.0788885
0.080452
0.080179
0.0800447
0.0802154
0.0828453
0.0824982
0.0813972
0.081272
0.0820813
0.0823612
0.0824947
0.0820788
0.0819007
0.0819006
0.0805413
0.0806733
0.0824911
0.0813972
0.0819006
0.0824834
0.0824833
0.0819008
0.0795021
0.0822179
0.0828393
0.0812721
0.0819006
0.0824833
0.0824833
0.0819005
0.0794186
0.0820864
0.0820801
0.0805411
0.0819007
0.0819007
0.0791075
0.0800799
0.0822564
0.0823581
0.0806733
0.0795028
0.0794184
0.0800811
0.0809285
0.0824929
0.0822198
0.0820854
0.0822559
0.0848856
0.0845386
0.0834376
0.0833122
0.084121
0.0843938
0.0845365
0.0841192
0.083941
0.0839409
0.082582
0.0827133
0.0845326
0.0834375
0.083941
0.0845236
0.0845235
0.0839409
0.0815425
0.0842589
0.0848802
0.0833127
0.083941
0.0845235
0.0845235
0.0839407
0.0814584
0.0841198
0.0841215
0.0825815
0.0839408
0.0839407
0.0811474
0.0821208
0.0842965
0.0843997
0.0827123
0.0815421
0.0814579
0.0821202
0.0829683
0.0845312
0.0842593
0.0841251
0.0842951
0.0869262
0.086579
0.0854782
0.0853526
0.086162
0.086433
0.0865763
0.0861595
0.0859811
0.0859812
0.084622
0.0847542
0.0865729
0.0854773
0.0859812
0.0865638
0.0865638
0.0859811
0.0835819
0.086298
0.0869201
0.0853525
0.0859811
0.0865638
0.0865638
0.085981
0.0834991
0.0861636
0.0861618
0.0846216
0.0859812
0.0859812
0.083188
0.0841611
0.0863369
0.0864344
0.0847533
0.0835826
0.0834983
0.084161
0.0850087
0.0865709
0.0862996
0.0861657
0.0863363
0.0889657
0.0886157
0.0875175
0.0873921
0.0882016
0.0884737
0.0886194
0.0881996
0.0880213
0.0880213
0.0866621
0.0867954
0.088614
0.0875183
0.0880215
0.0886041
0.0886042
0.0880216
0.0856235
0.0883401
0.0889609
0.0873934
0.0880214
0.0886041
0.0886041
0.0880213
0.08554
0.0882081
0.0882023
0.0866623
0.0880214
0.0880215
0.0852284
0.0862013
0.0883779
0.0884802
0.0867926
0.0856223
0.0855386
0.0862015
0.0870491
0.0886122
0.0883402
0.0882062
0.0883767
0.0910067
0.0906595
0.0895586
0.089433
0.0902426
0.090519
0.0906569
0.0902399
0.0900616
0.0900617
0.0887023
0.0888344
0.0906524
0.0895578
0.0900616
0.0906443
0.0906444
0.0900616
0.0876632
0.09038
0.0910006
0.0894331
0.0900614
0.0906442
0.0906441
0.0900615
0.0875803
0.0902456
0.0902416
0.0887027
0.0900616
0.0900617
0.0872687
0.0882423
0.0904165
0.0905142
0.0888338
0.087663
0.0875789
0.0882413
0.0890895
0.0906534
0.0903808
0.0902466
0.0904173
0.0930466
0.092696
0.091598
0.0914729
0.0922832
0.0925556
0.0927
0.0922799
0.0921016
0.0921017
0.0907426
0.0908739
0.0926919
0.0915983
0.0921018
0.0926843
0.0926844
0.0921016
0.0897024
0.0924197
0.093041
0.0914733
0.0921017
0.0926844
0.0926844
0.0921016
0.0896199
0.0922882
0.0922817
0.0907426
0.0921018
0.0921019
0.0893088
0.0902815
0.0924581
0.0925595
0.090874
0.0897033
0.0896196
0.0902822
0.0911294
0.0926944
0.0924215
0.0922871
0.0924573
0.0950867
0.0947396
0.0936382
0.0935129
0.0943225
0.094594
0.0947376
0.09432
0.0941417
0.0941418
0.0927829
0.0929149
0.0947343
0.0936382
0.0941419
0.0947245
0.0947244
0.094142
0.0917426
0.0944601
0.0950815
0.0935136
0.0941419
0.0947244
0.0947246
0.0941417
0.0916597
0.0943283
0.0943232
0.0927829
0.094142
0.0941419
0.0913489
0.0923212
0.0944976
0.0946026
0.0929147
0.0917436
0.0916601
0.092323
0.0931696
0.0947325
0.0944603
0.0943254
0.0944977
0.0971266
0.0967797
0.095678
0.0955528
0.0963621
0.0966352
0.0967763
0.0963597
0.0961819
0.0961817
0.0948232
0.0949551
0.0967741
0.0956781
0.0961817
0.0967645
0.0967645
0.0961821
0.0937832
0.0965009
0.0971211
0.0955533
0.0961819
0.0967645
0.0967645
0.0961819
0.0936999
0.0963653
0.0963625
0.0948225
0.0961819
0.0961819
0.0933892
0.0943632
0.0965376
0.096639
0.0949535
0.0937832
0.0936999
0.0943616
0.0952097
0.0967723
0.0965006
0.0963668
0.0965374
0.0991668
0.0988198
0.0977182
0.0975929
0.0984023
0.0986776
0.0988178
0.0984001
0.098222
0.098222
0.0968629
0.0969953
0.0988139
0.0977184
0.0982221
0.0988048
0.0988047
0.0982222
0.0958236
0.0985404
0.0991616
0.0975937
0.098222
0.0988047
0.0988047
0.098222
0.0957409
0.098409
0.0984033
0.0968631
0.0982223
0.0982219
0.0954293
0.0964026
0.0985793
0.0986826
0.0969947
0.0958233
0.0957395
0.0964022
0.0972497
0.0988131
0.0985413
0.0984035
0.0985771
0.101207
0.10086
0.0997585
0.0996333
0.100443
0.100716
0.100858
0.10044
0.100262
0.100262
0.0989033
0.0990341
0.100852
0.0997585
0.100262
0.100845
0.100845
0.100262
0.0978628
0.100581
0.101202
0.099634
0.100262
0.100845
0.100845
0.100262
0.0977804
0.100449
0.100444
0.0989033
0.100262
0.100262
0.0974695
0.098442
0.100618
0.100723
0.0990343
0.097863
0.0977801
0.0984432
0.0992899
0.100853
0.100582
0.100448
0.100618
0.103247
0.1029
0.101799
0.101673
0.102483
0.102755
0.102898
0.10248
0.102302
0.102302
0.100943
0.101075
0.102895
0.101798
0.102302
0.102885
0.102885
0.102302
0.0999031
0.102621
0.103242
0.101674
0.102302
0.102885
0.102885
0.102302
0.0998204
0.102489
0.102482
0.100943
0.102302
0.102302
0.0995095
0.100482
0.102659
0.102761
0.101075
0.0999042
0.0998205
0.100483
0.10133
0.102895
0.102622
0.102486
0.102658
0.105287
0.10494
0.103839
0.103713
0.104523
0.104795
0.104938
0.104521
0.104342
0.104342
0.102984
0.103115
0.104935
0.103838
0.104342
0.104925
0.104925
0.104342
0.101944
0.104662
0.105282
0.103714
0.104342
0.104925
0.104925
0.104342
0.10186
0.104526
0.104523
0.102983
0.104342
0.104342
0.10155
0.102523
0.104698
0.104802
0.103114
0.101944
0.101861
0.102523
0.10337
0.104933
0.104662
0.104528
0.104698
0.107328
0.106977
0.105879
0.105754
0.106564
0.106836
0.106981
0.106561
0.106382
0.106382
0.105024
0.105154
0.106973
0.105879
0.106382
0.106965
0.106965
0.106383
0.103984
0.106701
0.107322
0.105754
0.106382
0.106965
0.106965
0.106382
0.103901
0.10657
0.106564
0.105024
0.106382
0.106382
0.10359
0.104563
0.10674
0.106843
0.105154
0.103983
0.1039
0.104562
0.105411
0.106973
0.106701
0.106567
0.106738
0.109368
0.10902
0.107919
0.107794
0.108603
0.108878
0.109019
0.1086
0.108422
0.108422
0.107064
0.107195
0.109015
0.107918
0.108423
0.109005
0.109005
0.108422
0.106023
0.108741
0.109362
0.107794
0.108422
0.109005
0.109005
0.108423
0.105941
0.108606
0.108602
0.107063
0.108422
0.108423
0.10563
0.106603
0.108779
0.108877
0.107194
0.106023
0.10594
0.106603
0.10745
0.109015
0.108742
0.108608
0.108778
0.111408
0.111057
0.109959
0.109834
0.110644
0.110915
0.111061
0.110641
0.110463
0.110463
0.109104
0.109236
0.111055
0.109959
0.110463
0.111045
0.111045
0.110463
0.108064
0.110782
0.111403
0.109834
0.110463
0.111045
0.111045
0.110463
0.107981
0.11065
0.110644
0.109104
0.110463
0.110463
0.10767
0.108643
0.11082
0.110922
0.109234
0.108064
0.107981
0.108643
0.10949
0.111054
0.110782
0.110651
0.110819
0.113448
0.113101
0.111999
0.111874
0.112684
0.112956
0.113099
0.112681
0.112503
0.112503
0.111144
0.111276
0.113095
0.111999
0.112503
0.113085
0.113086
0.112503
0.110103
0.112822
0.113442
0.111874
0.112503
0.113085
0.113085
0.112503
0.110021
0.112693
0.112684
0.111144
0.112503
0.112503
0.10971
0.110683
0.112859
0.112957
0.111275
0.110104
0.110021
0.110684
0.111531
0.113093
0.112822
0.112689
0.112859
0.115488
0.115142
0.114039
0.113914
0.114724
0.114996
0.115137
0.114721
0.114543
0.114543
0.113184
0.113316
0.115136
0.114039
0.114543
0.115125
0.115126
0.114543
0.112144
0.114863
0.115483
0.113915
0.114543
0.115125
0.115125
0.114543
0.112062
0.114731
0.114724
0.113184
0.114543
0.114543
0.11175
0.112724
0.114899
0.115002
0.113313
0.112143
0.112061
0.112723
0.113571
0.115134
0.114863
0.114728
0.114898
0.117528
0.117181
0.116079
0.115954
0.116763
0.117043
0.117177
0.11676
0.116583
0.116583
0.115224
0.115356
0.117176
0.116078
0.116583
0.117165
0.117165
0.116583
0.114184
0.116903
0.11752
0.115953
0.116582
0.117165
0.117165
0.116583
0.114101
0.116771
0.116763
0.115224
0.116583
0.116583
0.11379
0.114763
0.116939
0.117036
0.115355
0.114184
0.114101
0.114763
0.11561
0.117175
0.116903
0.116768
0.116938
0.119568
0.11922
0.118119
0.117994
0.118805
0.119077
0.119217
0.1188
0.118623
0.118623
0.117264
0.117394
0.119213
0.118118
0.118623
0.119205
0.119205
0.118622
0.116223
0.118941
0.119563
0.117994
0.118622
0.119205
0.119205
0.118623
0.116141
0.11881
0.118804
0.117264
0.118623
0.118623
0.11583
0.116803
0.118979
0.11908
0.117395
0.116223
0.116141
0.116804
0.117651
0.119213
0.118942
0.118808
0.118979
0.121608
0.121261
0.120159
0.120034
0.120844
0.121115
0.121257
0.120841
0.120663
0.120663
0.119304
0.119436
0.121256
0.120159
0.120663
0.121245
0.121245
0.120663
0.118264
0.120982
0.121603
0.120034
0.120663
0.121245
0.121246
0.120663
0.118182
0.12085
0.120844
0.119304
0.120663
0.120663
0.11787
0.118844
0.12102
0.121122
0.119434
0.118264
0.118181
0.118843
0.119691
0.121254
0.120983
0.120849
0.121019
0.123648
0.123297
0.122198
0.122074
0.122884
0.12316
0.123302
0.122881
0.122703
0.122703
0.121344
0.121474
0.123294
0.122199
0.122703
0.123285
0.123286
0.122703
0.120303
0.123022
0.123643
0.122074
0.122703
0.123285
0.123285
0.122703
0.120222
0.122891
0.122884
0.121344
0.122703
0.122703
0.11991
0.120884
0.123059
0.123161
0.121475
0.120304
0.120221
0.120883
0.121731
0.123296
0.123023
0.122889
0.123059
0.125688
0.12534
0.124239
0.124114
0.124924
0.125195
0.125339
0.124921
0.124743
0.124743
0.123385
0.123515
0.125336
0.124239
0.124743
0.125326
0.125326
0.124743
0.122344
0.125062
0.125683
0.124115
0.124743
0.125326
0.125325
0.124743
0.122262
0.124934
0.124925
0.123384
0.124743
0.124743
0.121951
0.122924
0.1251
0.125204
0.123515
0.122344
0.122262
0.122924
0.123771
0.125334
0.125063
0.124929
0.125099
0.127728
0.127382
0.126279
0.126154
0.126964
0.127235
0.127377
0.126961
0.126783
0.126783
0.125424
0.125555
0.127376
0.126279
0.126783
0.127365
0.127365
0.126783
0.124384
0.127103
0.127723
0.126154
0.126783
0.127365
0.127365
0.126783
0.124302
0.126968
0.126964
0.125424
0.126783
0.126783
0.12399
0.124963
0.127139
0.12724
0.125554
0.124383
0.124301
0.124963
0.12581
0.127374
0.127102
0.126965
0.127138
0.129768
0.129421
0.128319
0.128194
0.129004
0.129276
0.129418
0.129001
0.128823
0.128823
0.127465
0.127595
0.129415
0.128319
0.128823
0.129405
0.129405
0.128823
0.126424
0.129142
0.129763
0.128194
0.128823
0.129405
0.129405
0.128823
0.126342
0.12901
0.129005
0.127464
0.128823
0.128823
0.12603
0.127004
0.129179
0.129277
0.127594
0.126424
0.126341
0.127003
0.127851
0.129414
0.129143
0.129009
0.12918
0.131808
0.131457
0.130358
0.130233
0.131043
0.131316
0.131462
0.131041
0.130863
0.130863
0.129504
0.129635
0.131455
0.130359
0.130863
0.131445
0.131446
0.130863
0.128464
0.131183
0.131803
0.130235
0.130863
0.131445
0.131445
0.130863
0.128382
0.131052
0.131045
0.129504
0.130863
0.130863
0.12807
0.129044
0.131219
0.13132
0.129634
0.128463
0.128381
0.129043
0.129891
0.131454
0.131182
0.131047
0.13122
0.133849
0.133501
0.132399
0.132274
0.133085
0.13336
0.133499
0.133081
0.132903
0.132903
0.131544
0.131674
0.133493
0.132399
0.132903
0.133485
0.133485
0.132903
0.130503
0.133221
0.133843
0.132274
0.132903
0.133486
0.133485
0.132903
0.130422
0.133094
0.133084
0.131545
0.132903
0.132903
0.13011
0.131083
0.13326
0.133356
0.131674
0.130503
0.130421
0.131084
0.13193
0.133496
0.133223
0.133085
0.133259
0.135888
0.135541
0.134439
0.134314
0.135124
0.135401
0.135537
0.13512
0.134943
0.134943
0.133584
0.133714
0.135536
0.134438
0.134943
0.135525
0.135525
0.134943
0.132544
0.135263