/*--------------------------------*- C++ -*----------------------------------*\
| =========                 |                                                 |
| \\      /  F ield         | OpenFOAM: The Open Source CFD Toolbox           |
|  \\    /   O peration     | Version:  v1906                                 |
|   \\  /    A nd           | Web:      www.OpenFOAM.com                      |
|    \\/     M anipulation  |                                                 |
\*---------------------------------------------------------------------------*/
FoamFile
{
    version     2.0;
    format      ascii;
    class       volVectorField;
    location    "0.2";
    object      U;
}
// * * * * * * * * * * * * * * * * * * * * * * * * * * * * * * * * * * * * * //

dimensions      [0 1 -1 0 0 0 0];


internalField   nonuniform List<vector> 
118248
(
(0.00790238 -0.00398801 0.0344069)
(0.000200265 -0.00101126 0.0393326)
(-0.000278987 0.00211437 0.00808037)
(0.00045377 0.00134857 0.00776404)
(0.00521874 -0.00486373 0.0397113)
(0.000177637 -0.00124223 0.0389522)
(-0.000965454 0.00017096 0.0392541)
(0.00250977 0.00256746 0.0102712)
(0.00122222 0.00253999 0.0119658)
(-8.3318e-05 0.00233106 0.0123033)
(-0.00114044 0.00325569 0.0111517)
(-0.00157965 0.00175991 0.00921918)
(0.00391344 -0.00120094 0.0408377)
(0.00197316 1.55006e-05 0.00847253)
(0.00244027 0.00123543 0.0119646)
(0.00137418 0.00141465 0.0137984)
(-0.000466293 0.00140396 0.0141004)
(-0.00221931 0.00244581 0.0130128)
(-0.0037402 0.00202937 0.0102109)
(0.0120293 3.44433e-05 0.0360693)
(-0.00390636 0.00771204 0.03561)
(0.00107849 0.000282795 0.00819346)
(0.00219799 -6.74087e-05 0.0122991)
(0.00137811 -0.000471462 0.0140961)
(-0.000508088 -0.000524465 0.0144455)
(-0.00247071 -0.000490076 0.013359)
(-0.00456953 -0.000396982 0.0106384)
(0.0104308 -0.000608622 0.0377936)
(-0.00470953 0.00436685 0.0398103)
(0.00322711 -0.00112086 0.0111578)
(0.00242291 -0.00222354 0.013016)
(-0.000486514 -0.0024805 0.0133553)
(-0.00258038 -0.00260301 0.0121275)
(-0.00154037 -0.00196036 0.00887735)
(0.00465756 7.41577e-05 0.0340747)
(-0.00131922 -0.000237928 0.0384117)
(0.00169515 -0.00156819 0.00927384)
(0.00200165 -0.00374013 0.0102208)
(-0.000432405 -0.0045801 0.0106403)
(-0.0019939 -0.00153182 0.0088789)
(-0.000329455 -0.000185034 0.00818769)
(-0.00109314 0.00396737 0.0409596)
(4.82871e-06 0.0120131 0.0360981)
(-0.000653038 0.0103926 0.0378239)
(0.000352488 0.00483016 0.0340421)
(-6.32398e-05 -0.000546968 -0.00734047)
(-0.00311345 -0.00267691 -0.00858498)
(-0.00935291 -0.0131679 0.0186862)
(0.000651792 -0.0137395 0.0184534)
(0.0136653 -0.0102465 -0.00877713)
(0.00231166 0.00116535 -0.00835022)
(-0.00267795 -0.00315188 -0.00867078)
(-0.0148681 -0.0148521 0.0201975)
(0.000289119 0.00155219 0.00814213)
(-0.000288383 0.00155201 0.00814109)
(0.030241 -0.0144421 0.0204446)
(0.0209369 -0.00625052 0.0174297)
(0.00237857 0.00156792 -0.00838334)
(-0.0131727 -0.0093696 0.0186573)
(0.00154712 0.000294379 0.00813614)
(-0.000362781 -0.000357086 0.00838003)
(0.000362871 -0.00035731 0.00837992)
(-0.0015466 0.000294688 0.00813668)
(0.0375489 -0.00140207 0.0178251)
(0.0182294 -0.000710594 -0.00763722)
(-0.000524909 -7.25065e-05 -0.00739139)
(-0.0137311 0.000636255 0.0184319)
(0.00154476 -0.000288443 0.00813529)
(-0.000354299 0.000357052 0.0083828)
(0.000353326 0.000357155 0.00838222)
(-0.00154451 -0.000288868 0.00813405)
(0.0369444 0.000270004 0.0177812)
(0.019216 0.000752002 -0.00789168)
(-0.010214 0.0135745 -0.00884953)
(-0.0144415 0.0302394 0.0204255)
(0.000295655 -0.00154119 0.0081322)
(-0.000296765 -0.00154189 0.00813356)
(0.0294764 0.0294555 0.0209192)
(0.019661 0.00360839 0.0183805)
(0.00796299 0.00150608 -0.00877568)
(0.00126816 0.00212793 -0.00772407)
(-0.00623272 0.0209717 0.0174089)
(-0.0014065 0.0375577 0.0178141)
(0.000263042 0.0369354 0.0177779)
(0.0036065 0.0196509 0.0183874)
(0.00948023 0.0094294 0.0165144)
(0.00149326 0.00233097 -0.00834054)
(-0.000733634 0.0182229 -0.00764644)
(0.000698344 0.0191813 -0.00793332)
(0.00151097 0.00795515 -0.00878788)
(-0.000106634 -0.000678692 -0.0131805)
(-0.00312483 -0.0033769 -0.0160678)
(-0.0101087 -0.016482 0.0108069)
(0.00084309 -0.0170322 0.0104576)
(0.0160013 -0.0116295 -0.0184699)
(0.00183084 0.0011242 -0.0147803)
(-0.00339039 -0.00304504 -0.0160389)
(-0.015667 -0.0156796 0.00974948)
(0.000220263 0.000946323 0.00954786)
(-0.000220499 0.000946455 0.00954812)
(0.0300227 -0.0159632 0.0098978)
(0.0229714 -0.00713043 0.0104877)
(0.00292694 0.00220315 -0.0153865)
(-0.0164799 -0.0101044 0.0108022)
(0.000946222 0.000219968 0.00954644)
(-0.000749783 -0.000747709 0.00945689)
(0.000750016 -0.000747549 0.00945705)
(-0.000946371 0.000220209 0.00954651)
(0.0377452 -0.00187563 0.0099958)
(0.0221195 -0.00117184 -0.0159721)
(-0.000653206 -0.000120615 -0.0131824)
(-0.0170357 0.000843714 0.0104574)
(0.000949712 -0.000220847 0.00954715)
(-0.00074882 0.000744912 0.00945652)
(0.000749732 0.000745234 0.00945681)
(-0.00094965 -0.000220318 0.00954684)
(0.0371344 0.000715535 0.00993276)
(0.0227125 4.29515e-07 -0.0165766)
(-0.0116206 0.0159925 -0.0184794)
(-0.0159674 0.0300204 0.00989563)
(0.000219518 -0.000944407 0.00954491)
(-0.000218935 -0.000943443 0.00954528)
(0.0284637 0.0284592 0.00999012)
(0.0221344 0.00478239 0.0104918)
(0.00925424 0.00161743 -0.0166153)
(0.001146 0.00183828 -0.0151339)
(-0.00711732 0.0229553 0.0104904)
(-0.00186752 0.0377423 0.0099918)
(0.000716087 0.0371216 0.00992975)
(0.00479291 0.0221435 0.0104814)
(0.011443 0.0114634 0.0108565)
(0.00222222 0.00293324 -0.0153948)
(-0.00116021 0.0221147 -0.0159806)
(-3.24736e-05 0.0226652 -0.0165417)
(0.00163413 0.00924606 -0.0166104)
(-0.000107536 -0.000679947 -0.0134623)
(-0.0031517 -0.00338987 -0.0163869)
(-0.0101384 -0.0165561 0.0105213)
(0.000822854 -0.0170918 0.0101638)
(0.0160903 -0.0116103 -0.0187816)
(0.00193603 0.00100892 -0.0154302)
(-0.00340301 -0.00306009 -0.016401)
(-0.0156718 -0.0156846 0.00953931)
(0.000255398 0.00078439 0.00960289)
(-0.000255365 0.000784588 0.00960255)
(0.0302064 -0.0159438 0.00960298)
(0.0230758 -0.00712895 0.0100951)
(0.00295475 0.00223608 -0.0157152)
(-0.0165522 -0.0101289 0.0105191)
(0.000782589 0.000253346 0.00960255)
(-0.000754037 -0.00075603 0.00956855)
(0.000754722 -0.000755663 0.00956865)
(-0.00078223 0.00025224 0.00960273)
(0.0379981 -0.0019692 0.00964858)
(0.0222429 -0.001253 -0.0162604)
(-0.000653782 -0.000119654 -0.0134626)
(-0.0170959 0.000829861 0.0101648)
(0.00078562 -0.00025461 0.00960317)
(-0.000755376 0.000753941 0.00956764)
(0.000754723 0.000754787 0.00956769)
(-0.000787928 -0.000255 0.00960291)
(0.0372971 0.000645546 0.00957778)
(0.0227846 -8.385e-05 -0.0168083)
(-0.0116007 0.0161028 -0.0187755)
(-0.0159519 0.0302055 0.00960102)
(0.000253401 -0.00078452 0.00960194)
(-0.00025204 -0.000782365 0.00960196)
(0.0283994 0.028407 0.00960141)
(0.0221054 0.00486094 0.0100899)
(0.00923702 0.00163811 -0.0169179)
(0.00106865 0.00201518 -0.0155283)
(-0.0071233 0.0230474 0.0101118)
(-0.0019606 0.0379956 0.00964959)
(0.000650426 0.0372922 0.00957686)
(0.00487016 0.0221242 0.0100885)
(0.011446 0.011485 0.0104815)
(0.0022604 0.00296382 -0.0157344)
(-0.00123244 0.0222397 -0.0162623)
(-8.73602e-05 0.0227612 -0.0168175)
(0.00167594 0.00923203 -0.0169107)
(-0.00010558 -0.000678282 -0.0134543)
(-0.00308467 -0.00337441 -0.0163722)
(-0.010136 -0.0165426 0.010532)
(0.000823578 -0.0170807 0.0101733)
(0.0160986 -0.0115969 -0.018755)
(0.00199385 0.000985653 -0.0154656)
(-0.00341074 -0.00312084 -0.0163913)
(-0.0156633 -0.0156607 0.0095596)
(0.000286011 0.000766713 0.0096032)
(-0.000285692 0.00076669 0.00960257)
(0.0302232 -0.0159108 0.00961383)
(0.0230614 -0.00713056 0.010101)
(0.00296968 0.0022614 -0.0157158)
(-0.0165445 -0.0101377 0.0105279)
(0.000764666 0.000284955 0.00960227)
(-0.000749844 -0.000751454 0.00960523)
(0.000749638 -0.000751721 0.0096053)
(-0.000764256 0.000285431 0.00960302)
(0.0380332 -0.00198515 0.00966288)
(0.0222486 -0.00125058 -0.016243)
(-0.000653861 -0.000121564 -0.0134539)
(-0.0170835 0.000818773 0.0101758)
(0.000766469 -0.000284237 0.00960353)
(-0.0007503 0.00075237 0.00960485)
(0.000750747 0.000751434 0.00960468)
(-0.000764537 -0.000284234 0.00960297)
(0.0373118 0.000629594 0.00958999)
(0.022762 -9.70535e-05 -0.0168405)
(-0.0115806 0.0160884 -0.018748)
(-0.0159112 0.0302235 0.00961479)
(0.000283682 -0.000765133 0.00960269)
(-0.000284878 -0.000766946 0.00960296)
(0.0283832 0.0283809 0.00960784)
(0.0220895 0.00487116 0.0100919)
(0.00922175 0.0016756 -0.0168902)
(0.00109073 0.00188635 -0.01573)
(-0.00710748 0.0230638 0.0101002)
(-0.00198235 0.0380378 0.0096612)
(0.000622587 0.0372997 0.00959321)
(0.0048753 0.0220754 0.0100981)
(0.0114957 0.0114238 0.0104798)
(0.00221889 0.00294177 -0.0157282)
(-0.00124856 0.0222509 -0.0162434)
(-0.000123739 0.022753 -0.0167531)
(0.00165808 0.0092198 -0.0169036)
(-0.000104647 -0.000677504 -0.0134517)
(-0.00306351 -0.00337832 -0.0164418)
(-0.0101362 -0.0165407 0.0105339)
(0.000823481 -0.0170789 0.0101752)
(0.0161125 -0.0115879 -0.0187498)
(0.00198918 0.00105749 -0.0151869)
(-0.00339356 -0.00315882 -0.0163212)
(-0.015663 -0.01565 0.00956282)
(0.000289613 0.000763838 0.00960028)
(-0.000290614 0.000764071 0.00959966)
(0.0302233 -0.015902 0.00961212)
(0.0230598 -0.00712576 0.0101098)
(0.00295819 0.00224486 -0.0157139)
(-0.0165419 -0.0101429 0.0105329)
(0.000762062 0.000290996 0.00959918)
(-0.000750935 -0.000749795 0.00961269)
(0.000750307 -0.000749733 0.00961277)
(-0.000762199 0.000290755 0.0095994)
(0.0380374 -0.00198866 0.00966343)
(0.0222388 -0.00125528 -0.0162412)
(-0.0006541 -0.000122539 -0.0134514)
(-0.0170831 0.000817315 0.0101792)
(0.000761794 -0.000289488 0.0095998)
(-0.000750889 0.000750739 0.0096123)
(0.000750819 0.0007507 0.00961226)
(-0.000762315 -0.000289797 0.00959941)
(0.0373097 0.00062359 0.00959384)
(0.0227748 -7.58175e-05 -0.0167933)
(-0.0115791 0.0160931 -0.0187484)
(-0.0159014 0.0302222 0.00961234)
(0.000289793 -0.000763616 0.00959923)
(-0.000289757 -0.00076302 0.00959943)
(0.0283703 0.0283752 0.00960348)
(0.0220756 0.00487549 0.0100938)
(0.00921869 0.00167356 -0.0168984)
(0.00109326 0.00187794 -0.0157582)
(-0.00710962 0.0230584 0.0101099)
(-0.00198601 0.0380427 0.00966353)
(0.000621433 0.0373048 0.0095931)
(0.00487434 0.022072 0.0100961)
(0.0114502 0.0114607 0.010477)
(0.00221462 0.00293851 -0.0157158)
(-0.00125831 0.0222423 -0.0162405)
(-9.55628e-05 0.0227532 -0.01679)
(0.00166275 0.00922051 -0.0168898)
(-0.000104528 -0.000677277 -0.0134471)
(-0.00306351 -0.00337717 -0.0164579)
(-0.010135 -0.016543 0.0105365)
(0.000827223 -0.0170806 0.010178)
(0.0161124 -0.0115906 -0.0187462)
(0.00202934 0.00103104 -0.015792)
(-0.00339324 -0.00316182 -0.016309)
(-0.0156594 -0.0156514 0.00956387)
(0.000291163 0.00075989 0.00959979)
(-0.000292433 0.000760886 0.00959907)
(0.0302233 -0.0159035 0.00961377)
(0.0230436 -0.00712591 0.0101119)
(0.00297035 0.00226373 -0.0157309)
(-0.0165431 -0.0101438 0.0105329)
(0.00076211 0.000291521 0.00959893)
(-0.000749373 -0.00074971 0.0096144)
(0.000748801 -0.00074953 0.00961437)
(-0.000761833 0.00029163 0.00959931)
(0.0380333 -0.00198848 0.00966551)
(0.022238 -0.00125981 -0.016244)
(-0.000653967 -0.000122925 -0.0134546)
(-0.0170836 0.000815428 0.0101782)
(0.000761875 -0.00029138 0.00959976)
(-0.000749327 0.000749422 0.00961423)
(0.000749166 0.000749355 0.00961421)
(-0.000762514 -0.000291887 0.00959914)
(0.0373122 0.000624724 0.00959304)
(0.0228012 -4.66309e-05 -0.0167605)
(-0.011589 0.0160937 -0.0187548)
(-0.0158977 0.0302204 0.00961398)
(0.00029176 -0.000760903 0.00959852)
(-0.000291746 -0.000760388 0.00959934)
(0.0283714 0.0283761 0.00960189)
(0.022072 0.0048698 0.0100958)
(0.00922993 0.0016533 -0.0168979)
(0.0010099 0.00194635 -0.0153996)
(-0.00711593 0.0230717 0.0100875)
(-0.00198832 0.0380445 0.00966363)
(0.000622166 0.0373066 0.00959354)
(0.00487826 0.0220754 0.0100917)
(0.0114636 0.0114439 0.0104757)
(0.0022333 0.00295325 -0.0157027)
(-0.00125816 0.0222393 -0.0162367)
(-9.49844e-05 0.0227512 -0.0167894)
(0.00166871 0.00921748 -0.016894)
(-0.000104253 -0.000677325 -0.0134507)
(-0.00313088 -0.0033895 -0.0163146)
(-0.0101362 -0.016542 0.0105359)
(0.000827578 -0.0170805 0.0101769)
(0.0161141 -0.0115885 -0.0187434)
(0.00203431 0.00102721 -0.0157771)
(-0.00338371 -0.00309048 -0.0164434)
(-0.0156559 -0.0156548 0.00956329)
(0.000291791 0.000760643 0.00959944)
(-0.000291642 0.000761584 0.0095992)
(0.0302239 -0.0159028 0.00961333)
(0.023044 -0.00712265 0.0101084)
(0.00297212 0.00226594 -0.0157327)
(-0.0165439 -0.0101437 0.0105314)
(0.000761548 0.000291678 0.00959859)
(-0.000749357 -0.000749475 0.00961467)
(0.00074931 -0.000749459 0.00961461)
(-0.000760374 0.000291599 0.00959933)
(0.0380334 -0.00198757 0.00966481)
(0.0222429 -0.00125666 -0.0162442)
(-0.000653768 -0.000122318 -0.0134503)
(-0.0170822 0.000814796 0.0101787)
(0.000760907 -0.000291635 0.00959976)
(-0.000749399 0.000749692 0.00961461)
(0.000749218 0.000749301 0.00961463)
(-0.000761328 -0.000291438 0.00959931)
(0.0373104 0.000624633 0.00959369)
(0.0227726 -7.61828e-05 -0.0167929)
(-0.011578 0.016091 -0.0187533)
(-0.0158983 0.030224 0.00961299)
(0.000291399 -0.00076114 0.00959891)
(-0.000292036 -0.000760678 0.00959932)
(0.0283735 0.028372 0.00960159)
(0.0220776 0.00487329 0.0100951)
(0.00921981 0.00167571 -0.0168867)
(0.00112645 0.00184167 -0.0151327)
(-0.00711046 0.023075 0.0101062)
(-0.00199004 0.038047 0.00966362)
(0.000617491 0.0373023 0.0095949)
(0.00487613 0.0220672 0.010096)
(0.0114918 0.0114216 0.0104815)
(0.0021928 0.00292463 -0.0156993)
(-0.00125187 0.0222514 -0.0162348)
(-0.000131299 0.0227386 -0.0168251)
(0.00166421 0.00921495 -0.0168982)
(-0.000104597 -0.000677537 -0.0134512)
(-0.00313074 -0.00338874 -0.016312)
(-0.010136 -0.0165418 0.0105335)
(0.000826474 -0.0170804 0.0101765)
(0.0161007 -0.0115864 -0.018747)
(0.00194064 0.00106832 -0.0157938)
(-0.00338393 -0.00309133 -0.0164496)
(-0.0156577 -0.0156529 0.00956279)
(0.000291912 0.000760596 0.00959942)
(-0.000291791 0.000760192 0.00959856)
(0.0302242 -0.0159026 0.0096119)
(0.0230461 -0.00712073 0.0101183)
(0.0029541 0.00223994 -0.0157327)
(-0.0165448 -0.0101433 0.0105319)
(0.000761055 0.000291414 0.00959843)
(-0.000749086 -0.000749071 0.00961448)
(0.000748861 -0.000749176 0.00961453)
(-0.000761674 0.000292076 0.00959883)
(0.0380349 -0.00198768 0.00966351)
(0.0222442 -0.00126281 -0.0162473)
(-0.000653603 -0.000122088 -0.0134514)
(-0.0170834 0.000815374 0.0101776)
(0.000761539 -0.000291455 0.00959927)
(-0.000749236 0.000749293 0.00961439)
(0.000749255 0.000749304 0.00961425)
(-0.000761383 -0.000291054 0.00959832)
(0.0373096 0.000624039 0.00959336)
(0.0227748 -7.7178e-05 -0.0167934)
(-0.0115815 0.016098 -0.018755)
(-0.0158991 0.0302232 0.00961238)
(0.000291561 -0.000760159 0.00959815)
(-0.000291977 -0.000760509 0.00959893)
(0.0283723 0.0283728 0.00960119)
(0.0220764 0.00487394 0.0100918)
(0.00922099 0.00166681 -0.0168865)
(0.00108629 0.00192413 -0.0151215)
(-0.00711049 0.0230724 0.0100918)
(-0.00198879 0.0380438 0.0096628)
(0.000620438 0.0373047 0.00959347)
(0.00487478 0.0220697 0.0100978)
(0.0114836 0.0114277 0.0104802)
(0.00222033 0.00294274 -0.0156975)
(-0.00125473 0.0222365 -0.0162365)
(-9.41618e-05 0.0227536 -0.0167909)
(0.00166984 0.00921691 -0.0169015)
(-0.000107329 -0.000678615 -0.0134522)
(-0.00315023 -0.00338313 -0.0163827)
(-0.0101448 -0.0165459 0.0105309)
(0.00081699 -0.0170803 0.0101765)
(0.0160974 -0.0115916 -0.0187547)
(0.00194198 0.00101157 -0.0154117)
(-0.0033946 -0.00306434 -0.0163733)
(-0.0156488 -0.0156616 0.00956361)
(0.000291547 0.000760391 0.00959931)
(-0.000291588 0.000760745 0.00959882)
(0.0302206 -0.0158968 0.00961316)
(0.0230697 -0.00712199 0.0100934)
(0.00295384 0.00223431 -0.0157078)
(-0.0165418 -0.0101354 0.0105317)
(0.00076057 0.000291366 0.00959828)
(-0.000748577 -0.000748919 0.00961458)
(0.00074861 -0.000748854 0.00961452)
(-0.000760101 0.00029157 0.00959896)
(0.0380371 -0.00199157 0.00966272)
(0.0222355 -0.00126592 -0.016246)
(-0.000652831 -0.000119863 -0.0134511)
(-0.0170834 0.000822726 0.0101778)
(0.000760655 -0.000291428 0.00959931)
(-0.000748622 0.00074885 0.00961446)
(0.0007488 0.000748839 0.00961434)
(-0.000760617 -0.000291375 0.00959962)
(0.0373124 0.000623477 0.00959289)
(0.0228022 -4.83161e-05 -0.0167532)
(-0.0115773 0.0160962 -0.0187489)
(-0.0159039 0.0302214 0.00961091)
(0.000291542 -0.000760542 0.00959843)
(-0.000291394 -0.000760397 0.00959936)
(0.0283709 0.0283763 0.00960082)
(0.0220656 0.00486941 0.0100958)
(0.00923104 0.00164192 -0.0168961)
(0.00111432 0.00192648 -0.0155125)
(-0.00710863 0.0230446 0.0101176)
(-0.00198211 0.0380379 0.00966328)
(0.00062619 0.0373049 0.00959199)
(0.00487928 0.0220806 0.0100921)
(0.0114358 0.0114695 0.0104773)
(0.0022294 0.00294298 -0.0157301)
(-0.00124803 0.022241 -0.0162455)
(-8.93938e-05 0.0227515 -0.0167929)
(0.00168551 0.00921625 -0.0168918)
(-0.000105178 -0.000677604 -0.0134522)
(-0.00308774 -0.0033813 -0.0164461)
(-0.01014 -0.0165446 0.0105322)
(0.000820431 -0.0170795 0.0101762)
(0.0161056 -0.0115842 -0.0187568)
(0.00192013 0.00108722 -0.0151453)
(-0.00339162 -0.00313376 -0.0163151)
(-0.0156551 -0.0156551 0.00956351)
(0.000291638 0.000761023 0.00959929)
(-0.000291232 0.000760091 0.00959894)
(0.0302247 -0.0158992 0.00961152)
(0.023073 -0.00711672 0.0101058)
(0.00294404 0.00222375 -0.0156958)
(-0.0165421 -0.01014 0.0105327)
(0.000759826 0.000291797 0.009599)
(-0.000748869 -0.000748557 0.00961425)
(0.000748971 -0.000748787 0.00961433)
(-0.000760521 0.000290858 0.00959809)
(0.0380426 -0.00198889 0.00966367)
(0.0222466 -0.0012489 -0.0162351)
(-0.000653546 -0.000121886 -0.0134515)
(-0.0170841 0.000821132 0.0101788)
(0.000760498 -0.000291184 0.00959903)
(-0.000748753 0.000748778 0.00961425)
(0.000748685 0.00074856 0.00961417)
(-0.000760158 -0.00029202 0.00959831)
(0.0373083 0.000620634 0.00959192)
(0.0227402 -0.000119377 -0.0168003)
(-0.0115826 0.0160931 -0.018745)
(-0.0159025 0.0302218 0.00961248)
(0.000291272 -0.000760007 0.00959853)
(-0.000291463 -0.000760541 0.00959861)
(0.0283703 0.0283754 0.00960019)
(0.0220743 0.00487485 0.0100912)
(0.00921317 0.00167783 -0.0168943)
(0.00106602 0.00194462 -0.0157701)
(-0.00711274 0.0230461 0.0101052)
(-0.00198657 0.0380382 0.00966326)
(0.000622197 0.0373027 0.00959343)
(0.00487437 0.0220709 0.0100961)
(0.0114499 0.0114632 0.0104732)
(0.00223977 0.00295452 -0.0157375)
(-0.00125818 0.0222445 -0.0162454)
(-9.58691e-05 0.0227523 -0.0167915)
(0.00166437 0.00921982 -0.0168881)
(-0.000105405 -0.000677854 -0.0134519)
(-0.00306828 -0.00337698 -0.016429)
(-0.0101386 -0.0165442 0.0105309)
(0.00082267 -0.0170807 0.010175)
(0.0160986 -0.0115941 -0.0187543)
(0.00199328 0.000987121 -0.0154634)
(-0.00339405 -0.00315602 -0.0163307)
(-0.015661 -0.0156502 0.00956263)
(0.000290936 0.000760178 0.00959879)
(-0.000291631 0.000760321 0.00959806)
(0.0302219 -0.0158999 0.00961135)
(0.0230595 -0.00712828 0.0101039)
(0.00296699 0.00225647 -0.015714)
(-0.0165447 -0.0101436 0.0105275)
(0.000759647 0.000291448 0.00959781)
(-0.000748567 -0.00074858 0.00961421)
(0.000748066 -0.000748217 0.00961404)
(-0.000760323 0.000291606 0.0095987)
(0.0380372 -0.00199071 0.00966244)
(0.02224 -0.0012634 -0.016245)
(-0.000653568 -0.000121967 -0.0134526)
(-0.0170834 0.000817761 0.0101767)
(0.000759753 -0.000291398 0.00959921)
(-0.00074838 0.000748163 0.00961409)
(0.000748572 0.000748551 0.00961393)
(-0.000760729 -0.000290791 0.00959883)
(0.0373091 0.000620918 0.00959279)
(0.0227731 -7.94107e-05 -0.0167955)
(-0.0115735 0.0160914 -0.0187478)
(-0.015902 0.0302237 0.00961115)
(0.000291503 -0.000760964 0.00959793)
(-0.000290884 -0.000759234 0.00959926)
(0.0283703 0.0283757 0.00959916)
(0.0220722 0.00486949 0.0100939)
(0.00922156 0.00166083 -0.0168965)
(0.00114624 0.0018589 -0.0154533)
(-0.00710343 0.0230578 0.010107)
(-0.00198409 0.0380409 0.00966211)
(0.00062445 0.0373056 0.0095905)
(0.00487835 0.022075 0.0100921)
(0.0114657 0.0114447 0.0104758)
(0.0022129 0.00293284 -0.0157214)
(-0.00124927 0.0222378 -0.0162427)
(-9.10672e-05 0.022751 -0.0167963)
(0.00166762 0.00921791 -0.0168959)
(-0.000106637 -0.00067829 -0.0134519)
(-0.00310642 -0.00337696 -0.0164047)
(-0.0101429 -0.0165457 0.0105312)
(0.00082031 -0.0170806 0.0101743)
(0.0160996 -0.0115937 -0.0187527)
(0.00199706 0.000987453 -0.0154554)
(-0.00340266 -0.00310238 -0.0163664)
(-0.0156497 -0.0156591 0.00956295)
(0.000290359 0.000759569 0.00959961)
(-0.000291914 0.000760896 0.00959885)
(0.0302221 -0.0158998 0.00961036)
(0.0230611 -0.00712841 0.0100988)
(0.00296961 0.00226069 -0.0157208)
(-0.0165427 -0.0101365 0.0105312)
(0.000759882 0.000291776 0.00959913)
(-0.000748356 -0.000747835 0.00961443)
(0.000747433 -0.000748167 0.00961448)
(-0.000758851 0.000290761 0.00959897)
(0.0380405 -0.00199105 0.00966116)
(0.0222378 -0.00126254 -0.0162478)
(-0.000652852 -0.00011996 -0.0134529)
(-0.0170839 0.000823234 0.0101775)
(0.000758626 -0.000290625 0.00959922)
(-0.000749033 0.000748455 0.00961441)
(0.000747184 0.000747483 0.00961435)
(-0.000761033 -0.00029184 0.00959855)
(0.0373037 0.00061796 0.00959328)
(0.0227919 -7.60321e-05 -0.0167525)
(-0.0115778 0.0160973 -0.0187519)
(-0.0159044 0.0302231 0.00961032)
(0.000289943 -0.000759884 0.00959875)
(-0.000292396 -0.00076001 0.00959866)
(0.0283704 0.0283728 0.00959812)
(0.022071 0.00486794 0.0100941)
(0.00922711 0.00165533 -0.0168995)
(0.00111332 0.00192344 -0.0155318)
(-0.00711214 0.0230458 0.0101249)
(-0.00198422 0.0380396 0.00966244)
(0.000618543 0.0372972 0.00959358)
(0.00487952 0.0220719 0.0100915)
(0.0114668 0.0114441 0.0104741)
(0.00223277 0.00294429 -0.015724)
(-0.00124094 0.0222555 -0.0162474)
(-0.000145847 0.0227277 -0.0167923)
(0.00167138 0.00921183 -0.0168959)
(-0.000103965 -0.000677034 -0.0134508)
(-0.00309816 -0.00338024 -0.0162976)
(-0.010137 -0.0165421 0.0105317)
(0.000826791 -0.01708 0.0101754)
(0.0161117 -0.0115902 -0.0187473)
(0.00202926 0.00103084 -0.0157943)
(-0.00339041 -0.00313164 -0.0164571)
(-0.0156617 -0.0156502 0.00956369)
(0.000290634 0.000760523 0.0095998)
(-0.000291405 0.000760485 0.00959896)
(0.0302227 -0.0159037 0.00961054)
(0.0230441 -0.00712495 0.010111)
(0.00297143 0.00226574 -0.0157302)
(-0.0165482 -0.0101461 0.010529)
(0.000757994 0.000291 0.00959842)
(-0.000748584 -0.000747618 0.00961471)
(0.00074743 -0.000747734 0.00961479)
(-0.000759429 0.00029141 0.00959966)
(0.0380357 -0.00198608 0.00966268)
(0.0222347 -0.00126123 -0.0162437)
(-0.000653668 -0.000122711 -0.0134524)
(-0.0170848 0.000814072 0.0101777)
(0.000758533 -0.000291509 0.00959971)
(-0.000748373 0.000747659 0.00961458)
(0.000747695 0.000747888 0.00961474)
(-0.000759845 -0.000291161 0.00959982)
(0.0373086 0.000625041 0.00959205)
(0.0227857 -5.19755e-05 -0.0167835)
(-0.0115831 0.0160985 -0.0187563)
(-0.0159006 0.0302223 0.0096115)
(0.000290939 -0.000760169 0.00959887)
(-0.000291201 -0.000759631 0.00959996)
(0.0283745 0.0283728 0.009599)
(0.0220792 0.00487295 0.0100912)
(0.00922535 0.00167308 -0.0168892)
(0.00108487 0.00192662 -0.0151178)
(-0.00711433 0.0230719 0.0100971)
(-0.00198888 0.0380426 0.00966139)
(0.00062179 0.037304 0.00959219)
(0.00487721 0.022069 0.0100947)
(0.0114951 0.0114234 0.0104785)
(0.00222372 0.00294487 -0.0157087)
(-0.00125545 0.0222355 -0.0162395)
(-9.38368e-05 0.0227524 -0.0167929)
(0.00166356 0.00921749 -0.0168957)
(-0.000104512 -0.00067717 -0.0134507)
(-0.00307903 -0.00337337 -0.0163936)
(-0.0101387 -0.0165442 0.0105319)
(0.000823939 -0.0170801 0.0101764)
(0.0161087 -0.0115866 -0.0187504)
(0.00197587 0.00105322 -0.0157339)
(-0.00340899 -0.00312495 -0.0163668)
(-0.015656 -0.0156521 0.00956327)
(0.0002918 0.000758421 0.00959992)
(-0.000290548 0.00075838 0.00959964)
(0.0302232 -0.0159025 0.0096117)
(0.0230565 -0.00711673 0.010102)
(0.00295901 0.00224455 -0.0157237)
(-0.0165461 -0.0101419 0.0105275)
(0.0007604 0.000290996 0.00959889)
(-0.00074732 -0.000747841 0.00961477)
(0.000747826 -0.000747692 0.00961471)
(-0.0007598 0.000291092 0.00959913)
(0.0380367 -0.00198573 0.00966332)
(0.0222501 -0.00125197 -0.0162465)
(-0.000653429 -0.000121584 -0.0134538)
(-0.0170838 0.000817515 0.0101751)
(0.000760278 -0.000291134 0.00959986)
(-0.000747185 0.000747533 0.00961466)
(0.000747813 0.000747462 0.00961461)
(-0.000758907 -0.000290626 0.00959909)
(0.0373122 0.000625269 0.00958999)
(0.0227546 -0.000100261 -0.0168442)
(-0.0115811 0.0160927 -0.0187553)
(-0.0159013 0.0302223 0.0096101)
(0.00029089 -0.000758941 0.00959917)
(-0.000291098 -0.000759294 0.0095993)
(0.0283748 0.0283729 0.00959883)
(0.0220809 0.00487249 0.0100908)
(0.00921787 0.00168122 -0.0168836)
(0.00109685 0.00190605 -0.0151759)
(-0.00711667 0.0230625 0.0101091)
(-0.00198766 0.0380411 0.00966227)
(0.000621508 0.0373024 0.00959184)
(0.00487593 0.022068 0.0100942)
(0.0114961 0.0114237 0.0104778)
(0.00220936 0.00293557 -0.0157092)
(-0.00126115 0.0222423 -0.0162441)
(-9.75748e-05 0.0227524 -0.016797)
(0.00166277 0.00921758 -0.0168959)
(-0.000106492 -0.000678157 -0.0134527)
(-0.00312186 -0.00337932 -0.016381)
(-0.0101418 -0.0165464 0.0105295)
(0.00082097 -0.0170807 0.0101737)
(0.0160878 -0.0115902 -0.0187565)
(0.00192058 0.00102062 -0.0154344)
(-0.00340055 -0.00308446 -0.016376)
(-0.0156539 -0.0156551 0.00956304)
(0.000291066 0.000758325 0.0095995)
(-0.000290798 0.0007592 0.00959886)
(0.030224 -0.0158992 0.00960939)
(0.0230619 -0.00711937 0.0100976)
(0.00294933 0.00222852 -0.0157197)
(-0.016547 -0.0101404 0.0105267)
(0.00075951 0.000290904 0.00959824)
(-0.000746865 -0.000747254 0.00961469)
(0.000747368 -0.000747087 0.00961446)
(-0.000758416 0.000290464 0.00959931)
(0.038039 -0.00198954 0.00966209)
(0.0222536 -0.00126145 -0.0162458)
(-0.000652491 -0.000119725 -0.0134508)
(-0.0170849 0.000821986 0.0101759)
(0.000759066 -0.000290473 0.0095995)
(-0.00074717 0.000747209 0.00961468)
(0.000746803 0.000747348 0.00961451)
(-0.000759586 -0.000291413 0.00959935)
(0.0373062 0.000619131 0.00959095)
(0.0227411 -0.000123664 -0.0168056)
(-0.011582 0.0161086 -0.0187527)
(-0.0159064 0.0302211 0.00960996)
(0.000290933 -0.000758456 0.0095989)
(-0.000291155 -0.00075802 0.00959945)
(0.0283698 0.0283753 0.00959858)
(0.0220697 0.00487036 0.0100937)
(0.00921675 0.00165866 -0.016888)
(0.00107163 0.0020211 -0.0155072)
(-0.00711824 0.0230427 0.010115)
(-0.00198417 0.0380349 0.00966146)
(0.000624275 0.0373027 0.00959177)
(0.00487725 0.022076 0.010092)
(0.0114595 0.0114543 0.0104752)
(0.0022591 0.00296276 -0.0157295)
(-0.0012469 0.0222388 -0.0162488)
(-9.08847e-05 0.0227515 -0.0167976)
(0.00167767 0.00921622 -0.0168941)
(-0.000106465 -0.00067795 -0.013453)
(-0.00312823 -0.0033878 -0.0164574)
(-0.0101433 -0.0165482 0.0105306)
(0.000817469 -0.0170797 0.0101756)
(0.0160932 -0.0115798 -0.0187557)
(0.00184307 0.00112679 -0.0151211)
(-0.00338218 -0.00310114 -0.0162979)
(-0.0156507 -0.0156595 0.00956362)
(0.000290367 0.000757888 0.00959991)
(-0.000291581 0.000759033 0.00959994)
(0.030225 -0.0158979 0.00961035)
(0.0230749 -0.00711126 0.0101005)
(0.00292445 0.00219072 -0.0157087)
(-0.0165433 -0.0101414 0.0105303)
(0.000759167 0.000291041 0.00959933)
(-0.000746662 -0.000747158 0.00961441)
(0.000746911 -0.000746842 0.00961445)
(-0.000758129 0.000290199 0.00959908)
(0.0380384 -0.00199018 0.00966024)
(0.0222401 -0.00126846 -0.0162449)
(-0.000653064 -0.00012106 -0.0134522)
(-0.0170836 0.000821216 0.0101778)
(0.000758118 -0.000290284 0.00959954)
(-0.000746981 0.000746934 0.0096144)
(0.000746575 0.000747091 0.0096144)
(-0.000759329 -0.000291194 0.00959961)
(0.0373081 0.000621175 0.00959112)
(0.0227735 -8.33193e-05 -0.0168014)
(-0.0115835 0.0160925 -0.0187524)
(-0.0159043 0.0302217 0.00960924)
(0.000291035 -0.000758962 0.00959924)
(-0.000290526 -0.000757648 0.00959935)
(0.0283697 0.0283765 0.00959713)
(0.0220638 0.00486941 0.0100969)
(0.00922142 0.00164875 -0.0168949)
(0.0010694 0.00193935 -0.0157916)
(-0.00711865 0.0230476 0.010118)
(-0.00198553 0.0380393 0.00966126)
(0.000623946 0.0373059 0.00959009)
(0.00487726 0.0220833 0.0100883)
(0.0114372 0.0114735 0.0104759)
(0.00224119 0.00295523 -0.0157361)
(-0.00125894 0.0222441 -0.0162518)
(-9.15125e-05 0.0227526 -0.0167984)
(0.00168465 0.00921708 -0.016891)
(-0.000103811 -0.000676789 -0.0134544)
(-0.00312148 -0.00340765 -0.0163664)
(-0.0101389 -0.0165494 0.0105275)
(0.000823494 -0.0170812 0.0101734)
(0.0161054 -0.0115805 -0.0187606)
(0.00194108 0.00110616 -0.0154841)
(-0.00337499 -0.0030813 -0.0163962)
(-0.0156517 -0.0156551 0.00956272)
(0.000290881 0.000758162 0.00959936)
(-0.000290696 0.000757607 0.00959919)
(0.0302251 -0.0159024 0.00960821)
(0.0230556 -0.00711035 0.0101094)
(0.002948 0.00223559 -0.0157074)
(-0.0165453 -0.0101433 0.0105261)
(0.000758594 0.000290774 0.00959918)
(-0.000745956 -0.00074653 0.00961432)
(0.000746657 -0.000746813 0.00961452)
(-0.000758108 0.000290094 0.00959913)
(0.0380339 -0.00198461 0.00966001)
(0.0222381 -0.00125442 -0.0162502)
(-0.000653609 -0.000122464 -0.0134542)
(-0.0170841 0.000816991 0.0101747)
(0.000759817 -0.000290318 0.00959953)
(-0.000746304 0.00074652 0.00961433)
(0.000746431 0.000746271 0.00961433)
(-0.000758892 -0.000291193 0.0096)
(0.037309 0.000626493 0.0095904)
(0.0227739 -7.55482e-05 -0.0168001)
(-0.0115922 0.0160922 -0.0187619)
(-0.0159005 0.0302194 0.00961002)
(0.000290842 -0.000756708 0.00959886)
(-0.000290964 -0.000757838 0.00959908)
(0.0283727 0.028374 0.00959571)
(0.0220754 0.00487682 0.0100907)
(0.00921684 0.00167452 -0.0168937)
(0.000984487 0.00200094 -0.015435)
(-0.00712325 0.0230596 0.0100899)
(-0.00198909 0.0380388 0.00965912)
(0.000620033 0.037303 0.00959032)
(0.00487109 0.022072 0.0100922)
(0.0114535 0.0114614 0.0104716)
(0.00226209 0.00297113 -0.0157285)
(-0.00126082 0.0222399 -0.016252)
(-9.84444e-05 0.0227504 -0.0167991)
(0.00165845 0.00922038 -0.0168912)
(-0.000104007 -0.00067697 -0.0134525)
(-0.00309786 -0.00338039 -0.0162982)
(-0.0101381 -0.0165451 0.0105283)
(0.000826649 -0.0170812 0.0101731)
(0.0161079 -0.011589 -0.0187556)
(0.00202739 0.00102761 -0.0157846)
(-0.00339005 -0.00313001 -0.0164542)
(-0.0156578 -0.0156523 0.00956377)
(0.000290851 0.000758249 0.00960002)
(-0.000290496 0.000758681 0.00959954)
(0.0302231 -0.0159035 0.00960903)
(0.0230427 -0.00711971 0.0101049)
(0.00296933 0.00226066 -0.0157316)